REMARK minimizedAffinity -6.94330692
REMARK minimizedRMSD -1
REMARK  Name = 04_docking/output/fentanyl.pdb
REMARK  7 active torsions:
REMARK  status: ('A' for Active; 'I' for Inactive)
REMARK    1  A    between atoms: C_2  and  C_16
REMARK    2  A    between atoms: C_2  and  C_17
REMARK    3  A    between atoms: C_5  and  N_23
REMARK    4  A    between atoms: C_9  and  C_10
REMARK    5  A    between atoms: C_10  and  C_11
REMARK    6  A    between atoms: C_12  and  N_23
REMARK    7  A    between atoms: C_16  and  N_24
REMARK                            x       y       z     vdW  Elec       q    Type
REMARK                         _______ _______ _______ _____ _____    ______ ____
ROOT
ATOM      1  C   UNL     1     100.041 106.589 122.958  0.00  0.00    +0.000 C 
ATOM      2  C   UNL     1     102.150 105.416 122.112  0.00  0.00    +0.000 C 
ATOM      3  C   UNL     1     101.235 104.252 121.692  0.00  0.00    +0.000 C 
ATOM      4  C   UNL     1      99.931 104.213 122.490  0.00  0.00    +0.000 C 
ATOM      5  C   UNL     1     101.366 106.733 122.207  0.00  0.00    +0.000 C 
ATOM      6  N   UNL     1      99.230 105.510 122.376  0.00  0.00    +0.000 N 
ATOM      7  H   UNL     1      99.100 105.698 121.381  0.00  0.00    +0.000 HD
ENDROOT
BRANCH   2   9
ATOM      8  C   UNL     1     103.220 105.499 119.842  0.00  0.00    +0.000 C 
ATOM      9  N   UNL     1     103.370 105.515 121.270  0.00  0.00    +0.000 N 
ATOM     10  O   UNL     1     102.269 106.033 119.305  0.00  0.00    +0.000 OA
BRANCH   9  11
ATOM     11  C   UNL     1     104.718 105.653 121.893  0.00  0.00    +0.000 A 
ATOM     12  C   UNL     1     104.816 105.183 123.201  0.00  0.00    +0.000 A 
ATOM     13  C   UNL     1     106.006 105.245 123.907  0.00  0.00    +0.000 A 
ATOM     14  C   UNL     1     107.053 106.261 122.001  0.00  0.00    +0.000 A 
ATOM     15  C   UNL     1     107.125 105.786 123.301  0.00  0.00    +0.000 A 
ATOM     16  C   UNL     1     105.853 106.192 121.307  0.00  0.00    +0.000 A 
ENDBRANCH   9  11
BRANCH   8  17
ATOM     17  C   UNL     1     104.220 104.828 118.882  0.00  0.00    +0.000 C 
ATOM     18  C   UNL     1     104.136 103.293 119.011  0.00  0.00    +0.000 C 
ENDBRANCH   8  17
ENDBRANCH   2   9
BRANCH   6  19
ATOM     19  C   UNL     1      97.894 105.471 122.993  0.00  0.00    +0.000 C 
BRANCH  19  20
ATOM     20  C   UNL     1      97.148 104.174 122.693  0.00  0.00    +0.000 C 
BRANCH  20  23
ATOM     21  C   UNL     1      97.007 102.986 124.914  0.00  0.00    +0.000 A 
ATOM     22  C   UNL     1      94.968 102.945 126.146  0.00  0.00    +0.000 A 
ATOM     23  C   UNL     1      96.370 103.731 123.935  0.00  0.00    +0.000 A 
ATOM     24  C   UNL     1      96.296 102.594 126.028  0.00  0.00    +0.000 A 
ATOM     25  C   UNL     1      94.330 103.683 125.179  0.00  0.00    +0.000 A 
ATOM     26  C   UNL     1      95.039 104.078 124.060  0.00  0.00    +0.000 A 
ENDBRANCH  20  23
ENDBRANCH  19  20
ENDBRANCH   6  19
TORSDOF 6
