REMARK minimizedAffinity -7.2532258
REMARK minimizedRMSD -1
REMARK  Name = 04_docking/output/fentanyl.pdb
REMARK  7 active torsions:
REMARK  status: ('A' for Active; 'I' for Inactive)
REMARK    1  A    between atoms: C_2  and  C_16
REMARK    2  A    between atoms: C_2  and  C_17
REMARK    3  A    between atoms: C_5  and  N_23
REMARK    4  A    between atoms: C_9  and  C_10
REMARK    5  A    between atoms: C_10  and  C_11
REMARK    6  A    between atoms: C_12  and  N_23
REMARK    7  A    between atoms: C_16  and  N_24
REMARK                            x       y       z     vdW  Elec       q    Type
REMARK                         _______ _______ _______ _____ _____    ______ ____
ROOT
ATOM      1  C   UNL     1      99.197 104.843 128.642  0.00  0.00    +0.000 C 
ATOM      2  C   UNL     1     101.265 104.505 130.108  0.00  0.00    +0.000 C 
ATOM      3  C   UNL     1     101.997 104.057 128.830  0.00  0.00    +0.000 C 
ATOM      4  C   UNL     1     101.038 103.538 127.756  0.00  0.00    +0.000 C 
ATOM      5  C   UNL     1     100.062 105.400 129.775  0.00  0.00    +0.000 C 
ATOM      6  N   UNL     1     100.017 104.564 127.454  0.00  0.00    +0.000 N 
ATOM      7  H   UNL     1     100.511 105.416 127.189  0.00  0.00    +0.000 HD
ENDROOT
BRANCH   2   9
ATOM      8  C   UNL     1     101.640 105.540 132.365  0.00  0.00    +0.000 C 
ATOM      9  N   UNL     1     102.184 105.103 131.111  0.00  0.00    +0.000 N 
ATOM     10  O   UNL     1     100.736 104.931 132.903  0.00  0.00    +0.000 OA
BRANCH   9  11
ATOM     11  C   UNL     1     103.645 105.224 130.830  0.00  0.00    +0.000 A 
ATOM     12  C   UNL     1     104.441 104.232 131.399  0.00  0.00    +0.000 A 
ATOM     13  C   UNL     1     105.814 104.215 131.225  0.00  0.00    +0.000 A 
ATOM     14  C   UNL     1     105.642 106.203 129.892  0.00  0.00    +0.000 A 
ATOM     15  C   UNL     1     106.412 105.206 130.468  0.00  0.00    +0.000 A 
ATOM     16  C   UNL     1     104.267 106.206 130.076  0.00  0.00    +0.000 A 
ENDBRANCH   9  11
BRANCH   8  17
ATOM     17  C   UNL     1     102.134 106.784 133.127  0.00  0.00    +0.000 C 
ATOM     18  C   UNL     1     101.364 106.938 134.454  0.00  0.00    +0.000 C 
ENDBRANCH   8  17
ENDBRANCH   2   9
BRANCH   6  19
ATOM     19  C   UNL     1      99.167 104.177 126.315  0.00  0.00    +0.000 C 
BRANCH  19  20
ATOM     20  C   UNL     1      98.623 102.757 126.446  0.00  0.00    +0.000 C 
BRANCH  20  23
ATOM     21  C   UNL     1      96.546 102.771 127.876  0.00  0.00    +0.000 A 
ATOM     22  C   UNL     1      94.384 102.886 126.881  0.00  0.00    +0.000 A 
ATOM     23  C   UNL     1      97.102 102.804 126.608  0.00  0.00    +0.000 A 
ATOM     24  C   UNL     1      95.174 102.815 128.008  0.00  0.00    +0.000 A 
ATOM     25  C   UNL     1      94.928 102.918 125.621  0.00  0.00    +0.000 A 
ATOM     26  C   UNL     1      96.303 102.875 125.484  0.00  0.00    +0.000 A 
ENDBRANCH  20  23
ENDBRANCH  19  20
ENDBRANCH   6  19
TORSDOF 6
