REMARK minimizedAffinity -7.02819777
REMARK minimizedRMSD -1
REMARK  Name = 04_docking/output/fentanyl.pdb
REMARK  7 active torsions:
REMARK  status: ('A' for Active; 'I' for Inactive)
REMARK    1  A    between atoms: C_2  and  C_16
REMARK    2  A    between atoms: C_2  and  C_17
REMARK    3  A    between atoms: C_5  and  N_23
REMARK    4  A    between atoms: C_9  and  C_10
REMARK    5  A    between atoms: C_10  and  C_11
REMARK    6  A    between atoms: C_12  and  N_23
REMARK    7  A    between atoms: C_16  and  N_24
REMARK                            x       y       z     vdW  Elec       q    Type
REMARK                         _______ _______ _______ _____ _____    ______ ____
ROOT
ATOM      1  C   UNL     1     100.443 104.884 124.367  0.00  0.00    +0.000 C 
ATOM      2  C   UNL     1     102.153 105.925 122.775  0.00  0.00    +0.000 C 
ATOM      3  C   UNL     1     102.457 106.937 123.894  0.00  0.00    +0.000 C 
ATOM      4  C   UNL     1     101.291 107.099 124.871  0.00  0.00    +0.000 C 
ATOM      5  C   UNL     1     101.552 104.631 123.344  0.00  0.00    +0.000 C 
ATOM      6  N   UNL     1     100.915 105.783 125.430  0.00  0.00    +0.000 N 
ATOM      7  H   UNL     1     101.753 105.381 125.851  0.00  0.00    +0.000 HD
ENDROOT
BRANCH   2   9
ATOM      8  C   UNL     1     103.086 105.504 120.482  0.00  0.00    +0.000 C 
ATOM      9  N   UNL     1     103.320 105.691 121.886  0.00  0.00    +0.000 N 
ATOM     10  O   UNL     1     102.208 106.117 119.905  0.00  0.00    +0.000 OA
BRANCH   9  11
ATOM     11  C   UNL     1     104.707 105.675 122.436  0.00  0.00    +0.000 A 
ATOM     12  C   UNL     1     105.665 106.305 121.644  0.00  0.00    +0.000 A 
ATOM     13  C   UNL     1     106.994 106.369 122.026  0.00  0.00    +0.000 A 
ATOM     14  C   UNL     1     106.449 105.161 124.027  0.00  0.00    +0.000 A 
ATOM     15  C   UNL     1     107.383 105.794 123.223  0.00  0.00    +0.000 A 
ATOM     16  C   UNL     1     105.120 105.106 123.629  0.00  0.00    +0.000 A 
ENDBRANCH   9  11
BRANCH   8  17
ATOM     17  C   UNL     1     103.900 104.542 119.597  0.00  0.00    +0.000 C 
ATOM     18  C   UNL     1     104.457 105.288 118.368  0.00  0.00    +0.000 C 
ENDBRANCH   8  17
ENDBRANCH   2   9
BRANCH   6  19
ATOM     19  C   UNL     1      99.905 105.904 126.496  0.00  0.00    +0.000 C 
BRANCH  19  20
ATOM     20  C   UNL     1      99.660 104.585 127.222  0.00  0.00    +0.000 C 
BRANCH  20  23
ATOM     21  C   UNL     1      99.805 105.286 129.641  0.00  0.00    +0.000 A 
ATOM     22  C   UNL     1     101.659 104.636 130.988  0.00  0.00    +0.000 A 
ATOM     23  C   UNL     1     100.373 104.606 128.576  0.00  0.00    +0.000 A 
ATOM     24  C   UNL     1     100.457 105.296 130.856  0.00  0.00    +0.000 A 
ATOM     25  C   UNL     1     102.229 103.961 129.937  0.00  0.00    +0.000 A 
ATOM     26  C   UNL     1     101.579 103.947 128.717  0.00  0.00    +0.000 A 
ENDBRANCH  20  23
ENDBRANCH  19  20
ENDBRANCH   6  19
TORSDOF 6
