REMARK minimizedAffinity -7.38213825
REMARK minimizedRMSD -1
REMARK  Name = 04_docking/output/fentanyl.pdb
REMARK  7 active torsions:
REMARK  status: ('A' for Active; 'I' for Inactive)
REMARK    1  A    between atoms: C_2  and  C_16
REMARK    2  A    between atoms: C_2  and  C_17
REMARK    3  A    between atoms: C_5  and  N_23
REMARK    4  A    between atoms: C_9  and  C_10
REMARK    5  A    between atoms: C_10  and  C_11
REMARK    6  A    between atoms: C_12  and  N_23
REMARK    7  A    between atoms: C_16  and  N_24
REMARK                            x       y       z     vdW  Elec       q    Type
REMARK                         _______ _______ _______ _____ _____    ______ ____
ROOT
ATOM      1  C   UNL     1     103.307 102.902 126.736  0.00  0.00    +0.000 C 
ATOM      2  C   UNL     1     102.131 104.644 128.193  0.00  0.00    +0.000 C 
ATOM      3  C   UNL     1     101.977 105.489 126.916  0.00  0.00    +0.000 C 
ATOM      4  C   UNL     1     103.021 105.142 125.853  0.00  0.00    +0.000 C 
ATOM      5  C   UNL     1     102.297 103.154 127.857  0.00  0.00    +0.000 C 
ATOM      6  N   UNL     1     102.968 103.697 125.546  0.00  0.00    +0.000 N 
ATOM      7  H   UNL     1     102.010 103.480 125.269  0.00  0.00    +0.000 HD
ENDROOT
BRANCH   2   9
ATOM      8  C   UNL     1      99.697 104.960 128.725  0.00  0.00    +0.000 C 
ATOM      9  N   UNL     1     101.056 104.908 129.184  0.00  0.00    +0.000 N 
ATOM     10  O   UNL     1      99.307 104.227 127.836  0.00  0.00    +0.000 OA
BRANCH   9  11
ATOM     11  C   UNL     1     101.379 105.091 130.629  0.00  0.00    +0.000 A 
ATOM     12  C   UNL     1     102.480 105.903 130.891  0.00  0.00    +0.000 A 
ATOM     13  C   UNL     1     102.899 106.164 132.184  0.00  0.00    +0.000 A 
ATOM     14  C   UNL     1     101.110 104.793 133.010  0.00  0.00    +0.000 A 
ATOM     15  C   UNL     1     102.209 105.605 133.245  0.00  0.00    +0.000 A 
ATOM     16  C   UNL     1     100.704 104.542 131.707  0.00  0.00    +0.000 A 
ENDBRANCH   9  11
BRANCH   8  17
ATOM     17  C   UNL     1      98.634 105.916 129.297  0.00  0.00    +0.000 C 
ATOM     18  C   UNL     1      97.331 105.149 129.597  0.00  0.00    +0.000 C 
ENDBRANCH   8  17
ENDBRANCH   2   9
BRANCH   6  19
ATOM     19  C   UNL     1     103.843 103.341 124.416  0.00  0.00    +0.000 C 
BRANCH  19  20
ATOM     20  C   UNL     1     105.204 102.824 124.870  0.00  0.00    +0.000 C 
BRANCH  20  23
ATOM     21  C   UNL     1     107.059 104.126 125.978  0.00  0.00    +0.000 A 
ATOM     22  C   UNL     1     107.997 106.045 124.923  0.00  0.00    +0.000 A 
ATOM     23  C   UNL     1     106.209 103.978 124.893  0.00  0.00    +0.000 A 
ATOM     24  C   UNL     1     107.960 105.170 125.986  0.00  0.00    +0.000 A 
ATOM     25  C   UNL     1     107.157 105.905 123.845  0.00  0.00    +0.000 A 
ATOM     26  C   UNL     1     106.252 104.861 123.832  0.00  0.00    +0.000 A 
ENDBRANCH  20  23
ENDBRANCH  19  20
ENDBRANCH   6  19
TORSDOF 6
