REMARK minimizedAffinity -7.09402418
REMARK minimizedRMSD -1
REMARK  Name = 04_docking/output/fentanyl.pdb
REMARK  7 active torsions:
REMARK  status: ('A' for Active; 'I' for Inactive)
REMARK    1  A    between atoms: C_2  and  C_16
REMARK    2  A    between atoms: C_2  and  C_17
REMARK    3  A    between atoms: C_5  and  N_23
REMARK    4  A    between atoms: C_9  and  C_10
REMARK    5  A    between atoms: C_10  and  C_11
REMARK    6  A    between atoms: C_12  and  N_23
REMARK    7  A    between atoms: C_16  and  N_24
REMARK                            x       y       z     vdW  Elec       q    Type
REMARK                         _______ _______ _______ _____ _____    ______ ____
ROOT
ATOM      1  C   UNL     1     104.659 102.823 126.642  0.00  0.00    +0.000 C 
ATOM      2  C   UNL     1     103.285 104.044 128.421  0.00  0.00    +0.000 C 
ATOM      3  C   UNL     1     103.849 105.353 127.840  0.00  0.00    +0.000 C 
ATOM      4  C   UNL     1     105.174 105.146 127.105  0.00  0.00    +0.000 C 
ATOM      5  C   UNL     1     103.322 102.914 127.381  0.00  0.00    +0.000 C 
ATOM      6  N   UNL     1     105.012 104.122 126.051  0.00  0.00    +0.000 N 
ATOM      7  H   UNL     1     104.249 104.426 125.447  0.00  0.00    +0.000 HD
ENDROOT
BRANCH   2   9
ATOM      8  C   UNL     1     100.790 104.225 128.199  0.00  0.00    +0.000 C 
ATOM      9  N   UNL     1     101.949 104.227 129.046  0.00  0.00    +0.000 N 
ATOM     10  O   UNL     1     100.726 103.500 127.225  0.00  0.00    +0.000 OA
BRANCH   9  11
ATOM     11  C   UNL     1     101.814 104.384 130.523  0.00  0.00    +0.000 A 
ATOM     12  C   UNL     1     102.411 103.381 131.283  0.00  0.00    +0.000 A 
ATOM     13  C   UNL     1     102.367 103.395 132.666  0.00  0.00    +0.000 A 
ATOM     14  C   UNL     1     101.111 105.438 132.579  0.00  0.00    +0.000 A 
ATOM     15  C   UNL     1     101.714 104.429 133.312  0.00  0.00    +0.000 A 
ATOM     16  C   UNL     1     101.165 105.410 131.192  0.00  0.00    +0.000 A 
ENDBRANCH   9  11
BRANCH   8  17
ATOM     17  C   UNL     1      99.553 105.111 128.436  0.00  0.00    +0.000 C 
ATOM     18  C   UNL     1      98.265 104.272 128.328  0.00  0.00    +0.000 C 
ENDBRANCH   8  17
ENDBRANCH   2   9
BRANCH   6  19
ATOM     19  C   UNL     1     106.215 104.001 125.210  0.00  0.00    +0.000 C 
BRANCH  19  20
ATOM     20  C   UNL     1     106.772 105.357 124.788  0.00  0.00    +0.000 C 
BRANCH  20  23
ATOM     21  C   UNL     1     107.309 105.837 122.370  0.00  0.00    +0.000 A 
ATOM     22  C   UNL     1     105.567 106.207 120.787  0.00  0.00    +0.000 A 
ATOM     23  C   UNL     1     106.345 105.662 123.350  0.00  0.00    +0.000 A 
ATOM     24  C   UNL     1     106.911 106.110 121.079  0.00  0.00    +0.000 A 
ATOM     25  C   UNL     1     104.607 106.036 121.753  0.00  0.00    +0.000 A 
ATOM     26  C   UNL     1     105.001 105.762 123.050  0.00  0.00    +0.000 A 
ENDBRANCH  20  23
ENDBRANCH  19  20
ENDBRANCH   6  19
TORSDOF 6
