REMARK minimizedAffinity -7.00449038
REMARK minimizedRMSD -1
REMARK  Name = 04_docking/output/fentanyl.pdb
REMARK  7 active torsions:
REMARK  status: ('A' for Active; 'I' for Inactive)
REMARK    1  A    between atoms: C_2  and  C_16
REMARK    2  A    between atoms: C_2  and  C_17
REMARK    3  A    between atoms: C_5  and  N_23
REMARK    4  A    between atoms: C_9  and  C_10
REMARK    5  A    between atoms: C_10  and  C_11
REMARK    6  A    between atoms: C_12  and  N_23
REMARK    7  A    between atoms: C_16  and  N_24
REMARK                            x       y       z     vdW  Elec       q    Type
REMARK                         _______ _______ _______ _____ _____    ______ ____
ROOT
ATOM      1  C   UNL     1     105.165 106.436 128.647  0.00  0.00    +0.000 C 
ATOM      2  C   UNL     1     104.010 105.453 126.588  0.00  0.00    +0.000 C 
ATOM      3  C   UNL     1     104.050 104.097 127.314  0.00  0.00    +0.000 C 
ATOM      4  C   UNL     1     105.156 104.028 128.368  0.00  0.00    +0.000 C 
ATOM      5  C   UNL     1     104.079 106.620 127.585  0.00  0.00    +0.000 C 
ATOM      6  N   UNL     1     105.009 105.143 129.328  0.00  0.00    +0.000 N 
ATOM      7  H   UNL     1     104.066 105.088 129.715  0.00  0.00    +0.000 HD
ENDROOT
BRANCH   2   9
ATOM      8  C   UNL     1     102.997 106.441 124.513  0.00  0.00    +0.000 C 
ATOM      9  N   UNL     1     102.873 105.557 125.637  0.00  0.00    +0.000 N 
ATOM     10  O   UNL     1     104.062 106.586 123.944  0.00  0.00    +0.000 OA
BRANCH   9  11
ATOM     11  C   UNL     1     101.638 104.743 125.833  0.00  0.00    +0.000 A 
ATOM     12  C   UNL     1     100.815 105.158 126.877  0.00  0.00    +0.000 A 
ATOM     13  C   UNL     1      99.635 104.498 127.178  0.00  0.00    +0.000 A 
ATOM     14  C   UNL     1     100.065 102.967 125.380  0.00  0.00    +0.000 A 
ATOM     15  C   UNL     1      99.263 103.400 126.424  0.00  0.00    +0.000 A 
ATOM     16  C   UNL     1     101.245 103.639 125.092  0.00  0.00    +0.000 A 
ENDBRANCH   9  11
BRANCH   8  17
ATOM     17  C   UNL     1     101.831 107.263 123.935  0.00  0.00    +0.000 C 
ATOM     18  C   UNL     1     101.583 106.878 122.463  0.00  0.00    +0.000 C 
ENDBRANCH   8  17
ENDBRANCH   2   9
BRANCH   6  19
ATOM     19  C   UNL     1     105.952 105.030 130.453  0.00  0.00    +0.000 C 
BRANCH  19  20
ATOM     20  C   UNL     1     105.417 104.151 131.580  0.00  0.00    +0.000 C 
BRANCH  20  23
ATOM     21  C   UNL     1     103.692 105.908 132.129  0.00  0.00    +0.000 A 
ATOM     22  C   UNL     1     101.422 105.303 132.528  0.00  0.00    +0.000 A 
ATOM     23  C   UNL     1     103.985 104.570 131.920  0.00  0.00    +0.000 A 
ATOM     24  C   UNL     1     102.398 106.273 132.434  0.00  0.00    +0.000 A 
ATOM     25  C   UNL     1     101.705 103.975 132.323  0.00  0.00    +0.000 A 
ATOM     26  C   UNL     1     103.001 103.605 132.017  0.00  0.00    +0.000 A 
ENDBRANCH  20  23
ENDBRANCH  19  20
ENDBRANCH   6  19
TORSDOF 6
