REMARK minimizedAffinity -6.86925316
REMARK minimizedRMSD -1
REMARK  Name = 04_docking/output/fentanyl.pdb
REMARK  7 active torsions:
REMARK  status: ('A' for Active; 'I' for Inactive)
REMARK    1  A    between atoms: C_2  and  C_16
REMARK    2  A    between atoms: C_2  and  C_17
REMARK    3  A    between atoms: C_5  and  N_23
REMARK    4  A    between atoms: C_9  and  C_10
REMARK    5  A    between atoms: C_10  and  C_11
REMARK    6  A    between atoms: C_12  and  N_23
REMARK    7  A    between atoms: C_16  and  N_24
REMARK                            x       y       z     vdW  Elec       q    Type
REMARK                         _______ _______ _______ _____ _____    ______ ____
ROOT
ATOM      1  C   UNL     1     104.098 103.414 128.111  0.00  0.00    +0.000 C 
ATOM      2  C   UNL     1     103.454 104.149 125.748  0.00  0.00    +0.000 C 
ATOM      3  C   UNL     1     103.764 105.588 126.199  0.00  0.00    +0.000 C 
ATOM      4  C   UNL     1     103.653 105.764 127.714  0.00  0.00    +0.000 C 
ATOM      5  C   UNL     1     104.201 103.123 126.613  0.00  0.00    +0.000 C 
ATOM      6  N   UNL     1     104.528 104.790 128.401  0.00  0.00    +0.000 N 
ATOM      7  H   UNL     1     105.472 104.922 128.039  0.00  0.00    +0.000 HD
ENDROOT
BRANCH   2   9
ATOM      8  C   UNL     1     102.851 102.984 123.607  0.00  0.00    +0.000 C 
ATOM      9  N   UNL     1     103.661 103.952 124.289  0.00  0.00    +0.000 N 
ATOM     10  O   UNL     1     101.687 102.811 123.914  0.00  0.00    +0.000 OA
BRANCH   9  11
ATOM     11  C   UNL     1     104.672 104.760 123.546  0.00  0.00    +0.000 A 
ATOM     12  C   UNL     1     104.187 105.428 122.424  0.00  0.00    +0.000 A 
ATOM     13  C   UNL     1     105.009 106.215 121.637  0.00  0.00    +0.000 A 
ATOM     14  C   UNL     1     106.852 105.689 123.081  0.00  0.00    +0.000 A 
ATOM     15  C   UNL     1     106.345 106.343 121.971  0.00  0.00    +0.000 A 
ATOM     16  C   UNL     1     106.014 104.903 123.860  0.00  0.00    +0.000 A 
ENDBRANCH   9  11
BRANCH   8  17
ATOM     17  C   UNL     1     103.360 102.100 122.453  0.00  0.00    +0.000 C 
ATOM     18  C   UNL     1     104.191 100.925 123.006  0.00  0.00    +0.000 C 
ENDBRANCH   8  17
ENDBRANCH   2   9
BRANCH   6  19
ATOM     19  C   UNL     1     104.579 105.024 129.854  0.00  0.00    +0.000 C 
BRANCH  19  20
ATOM     20  C   UNL     1     103.716 104.039 130.636  0.00  0.00    +0.000 C 
BRANCH  20  23
ATOM     21  C   UNL     1     101.934 104.126 132.420  0.00  0.00    +0.000 A 
ATOM     22  C   UNL     1     101.476 106.154 133.584  0.00  0.00    +0.000 A 
ATOM     23  C   UNL     1     102.910 104.793 131.696  0.00  0.00    +0.000 A 
ATOM     24  C   UNL     1     101.216 104.817 133.373  0.00  0.00    +0.000 A 
ATOM     25  C   UNL     1     102.440 106.821 132.870  0.00  0.00    +0.000 A 
ATOM     26  C   UNL     1     103.163 106.133 131.914  0.00  0.00    +0.000 A 
ENDBRANCH  20  23
ENDBRANCH  19  20
ENDBRANCH   6  19
TORSDOF 6
