REMARK minimizedAffinity -7.41922283
REMARK minimizedRMSD -1
REMARK  Name = 04_docking/output/fentanyl.pdb
REMARK  7 active torsions:
REMARK  status: ('A' for Active; 'I' for Inactive)
REMARK    1  A    between atoms: C_2  and  C_16
REMARK    2  A    between atoms: C_2  and  C_17
REMARK    3  A    between atoms: C_5  and  N_23
REMARK    4  A    between atoms: C_9  and  C_10
REMARK    5  A    between atoms: C_10  and  C_11
REMARK    6  A    between atoms: C_12  and  N_23
REMARK    7  A    between atoms: C_16  and  N_24
REMARK                            x       y       z     vdW  Elec       q    Type
REMARK                         _______ _______ _______ _____ _____    ______ ____
ROOT
ATOM      1  C   UNL     1     103.270 105.848 131.234  0.00  0.00    +0.000 C 
ATOM      2  C   UNL     1     103.827 104.967 128.898  0.00  0.00    +0.000 C 
ATOM      3  C   UNL     1     102.315 104.750 128.709  0.00  0.00    +0.000 C 
ATOM      4  C   UNL     1     101.573 104.597 130.038  0.00  0.00    +0.000 C 
ATOM      5  C   UNL     1     104.106 106.035 129.966  0.00  0.00    +0.000 C 
ATOM      6  N   UNL     1     101.840 105.765 130.903  0.00  0.00    +0.000 N 
ATOM      7  H   UNL     1     101.576 106.599 130.378  0.00  0.00    +0.000 HD
ENDROOT
BRANCH   2   9
ATOM      8  C   UNL     1     105.942 104.957 127.544  0.00  0.00    +0.000 C 
ATOM      9  N   UNL     1     104.532 105.218 127.615  0.00  0.00    +0.000 N 
ATOM     10  O   UNL     1     106.437 104.022 128.144  0.00  0.00    +0.000 OA
BRANCH   9  11
ATOM     11  C   UNL     1     103.787 105.709 126.419  0.00  0.00    +0.000 A 
ATOM     12  C   UNL     1     103.722 104.813 125.354  0.00  0.00    +0.000 A 
ATOM     13  C   UNL     1     103.063 105.130 124.178  0.00  0.00    +0.000 A 
ATOM     14  C   UNL     1     102.508 107.275 125.100  0.00  0.00    +0.000 A 
ATOM     15  C   UNL     1     102.456 106.366 124.055  0.00  0.00    +0.000 A 
ATOM     16  C   UNL     1     103.172 106.941 126.272  0.00  0.00    +0.000 A 
ENDBRANCH   9  11
BRANCH   8  17
ATOM     17  C   UNL     1     106.932 105.806 126.726  0.00  0.00    +0.000 C 
ATOM     18  C   UNL     1     107.488 104.988 125.543  0.00  0.00    +0.000 C 
ENDBRANCH   8  17
ENDBRANCH   2   9
BRANCH   6  19
ATOM     19  C   UNL     1     101.023 105.743 132.128  0.00  0.00    +0.000 C 
BRANCH  19  20
ATOM     20  C   UNL     1     101.866 105.853 133.395  0.00  0.00    +0.000 C 
BRANCH  20  23
ATOM     21  C   UNL     1     101.444 107.288 135.426  0.00  0.00    +0.000 A 
ATOM     22  C   UNL     1     101.191 109.648 135.218  0.00  0.00    +0.000 A 
ATOM     23  C   UNL     1     101.624 107.213 134.055  0.00  0.00    +0.000 A 
ATOM     24  C   UNL     1     101.228 108.519 136.008  0.00  0.00    +0.000 A 
ATOM     25  C   UNL     1     101.368 109.581 133.858  0.00  0.00    +0.000 A 
ATOM     26  C   UNL     1     101.585 108.349 133.270  0.00  0.00    +0.000 A 
ENDBRANCH  20  23
ENDBRANCH  19  20
ENDBRANCH   6  19
TORSDOF 6
