REMARK minimizedAffinity -7.24041319
REMARK minimizedRMSD -1
REMARK  Name = 04_docking/output/fentanyl.pdb
REMARK  7 active torsions:
REMARK  status: ('A' for Active; 'I' for Inactive)
REMARK    1  A    between atoms: C_2  and  C_16
REMARK    2  A    between atoms: C_2  and  C_17
REMARK    3  A    between atoms: C_5  and  N_23
REMARK    4  A    between atoms: C_9  and  C_10
REMARK    5  A    between atoms: C_10  and  C_11
REMARK    6  A    between atoms: C_12  and  N_23
REMARK    7  A    between atoms: C_16  and  N_24
REMARK                            x       y       z     vdW  Elec       q    Type
REMARK                         _______ _______ _______ _____ _____    ______ ____
ROOT
ATOM      1  C   UNL     1     100.679 103.096 126.513  0.00  0.00    +0.000 C 
ATOM      2  C   UNL     1     101.811 104.511 128.318  0.00  0.00    +0.000 C 
ATOM      3  C   UNL     1     100.397 104.849 128.824  0.00  0.00    +0.000 C 
ATOM      4  C   UNL     1      99.332 104.699 127.736  0.00  0.00    +0.000 C 
ATOM      5  C   UNL     1     101.819 103.193 127.529  0.00  0.00    +0.000 C 
ATOM      6  N   UNL     1      99.383 103.336 127.165  0.00  0.00    +0.000 N 
ATOM      7  H   UNL     1      99.278 102.678 127.938  0.00  0.00    +0.000 HD
ENDROOT
BRANCH   2   9
ATOM      8  C   UNL     1     104.215 104.460 129.039  0.00  0.00    +0.000 C 
ATOM      9  N   UNL     1     102.829 104.558 129.398  0.00  0.00    +0.000 N 
ATOM     10  O   UNL     1     104.635 104.964 128.015  0.00  0.00    +0.000 OA
BRANCH   9  11
ATOM     11  C   UNL     1     102.422 104.728 130.824  0.00  0.00    +0.000 A 
ATOM     12  C   UNL     1     102.572 106.016 131.333  0.00  0.00    +0.000 A 
ATOM     13  C   UNL     1     102.234 106.323 132.640  0.00  0.00    +0.000 A 
ATOM     14  C   UNL     1     101.580 104.039 132.979  0.00  0.00    +0.000 A 
ATOM     15  C   UNL     1     101.737 105.328 133.462  0.00  0.00    +0.000 A 
ATOM     16  C   UNL     1     101.923 103.748 131.666  0.00  0.00    +0.000 A 
ENDBRANCH   9  11
BRANCH   8  17
ATOM     17  C   UNL     1     105.273 103.731 129.889  0.00  0.00    +0.000 C 
ATOM     18  C   UNL     1     106.143 104.751 130.650  0.00  0.00    +0.000 C 
ENDBRANCH   8  17
ENDBRANCH   2   9
BRANCH   6  19
ATOM     19  C   UNL     1      98.275 103.089 126.226  0.00  0.00    +0.000 C 
BRANCH  19  20
ATOM     20  C   UNL     1      96.979 102.711 126.938  0.00  0.00    +0.000 C 
BRANCH  20  23
ATOM     21  C   UNL     1      96.082 101.630 124.843  0.00  0.00    +0.000 A 
ATOM     22  C   UNL     1      93.884 102.121 124.065  0.00  0.00    +0.000 A 
ATOM     23  C   UNL     1      95.871 102.495 125.905  0.00  0.00    +0.000 A 
ATOM     24  C   UNL     1      95.075 101.443 123.919  0.00  0.00    +0.000 A 
ATOM     25  C   UNL     1      93.669 102.981 125.114  0.00  0.00    +0.000 A 
ATOM     26  C   UNL     1      94.675 103.171 126.042  0.00  0.00    +0.000 A 
ENDBRANCH  20  23
ENDBRANCH  19  20
ENDBRANCH   6  19
TORSDOF 6
