REMARK minimizedAffinity -7.49971676
REMARK minimizedRMSD -1
REMARK  Name = 04_docking/output/fentanyl.pdb
REMARK  7 active torsions:
REMARK  status: ('A' for Active; 'I' for Inactive)
REMARK    1  A    between atoms: C_2  and  C_16
REMARK    2  A    between atoms: C_2  and  C_17
REMARK    3  A    between atoms: C_5  and  N_23
REMARK    4  A    between atoms: C_9  and  C_10
REMARK    5  A    between atoms: C_10  and  C_11
REMARK    6  A    between atoms: C_12  and  N_23
REMARK    7  A    between atoms: C_16  and  N_24
REMARK                            x       y       z     vdW  Elec       q    Type
REMARK                         _______ _______ _______ _____ _____    ______ ____
ROOT
ATOM      1  C   UNL     1     102.701 105.459 128.887  0.00  0.00    +0.000 C 
ATOM      2  C   UNL     1     104.220 104.123 127.322  0.00  0.00    +0.000 C 
ATOM      3  C   UNL     1     103.640 102.855 127.975  0.00  0.00    +0.000 C 
ATOM      4  C   UNL     1     103.090 103.116 129.378  0.00  0.00    +0.000 C 
ATOM      5  C   UNL     1     103.260 105.313 127.471  0.00  0.00    +0.000 C 
ATOM      6  N   UNL     1     102.085 104.200 129.332  0.00  0.00    +0.000 N 
ATOM      7  H   UNL     1     101.373 103.926 128.654  0.00  0.00    +0.000 HD
ENDROOT
BRANCH   2   9
ATOM      8  C   UNL     1     103.925 102.963 125.115  0.00  0.00    +0.000 C 
ATOM      9  N   UNL     1     104.662 103.893 125.922  0.00  0.00    +0.000 N 
ATOM     10  O   UNL     1     102.717 102.862 125.218  0.00  0.00    +0.000 OA
BRANCH   9  11
ATOM     11  C   UNL     1     105.831 104.630 125.361  0.00  0.00    +0.000 A 
ATOM     12  C   UNL     1     106.908 104.783 126.232  0.00  0.00    +0.000 A 
ATOM     13  C   UNL     1     108.062 105.445 125.849  0.00  0.00    +0.000 A 
ATOM     14  C   UNL     1     107.092 105.830 123.688  0.00  0.00    +0.000 A 
ATOM     15  C   UNL     1     108.150 105.968 124.572  0.00  0.00    +0.000 A 
ATOM     16  C   UNL     1     105.942 105.163 124.087  0.00  0.00    +0.000 A 
ENDBRANCH   9  11
BRANCH   8  17
ATOM     17  C   UNL     1     104.570 102.034 124.070  0.00  0.00    +0.000 C 
ATOM     18  C   UNL     1     103.797 102.107 122.739  0.00  0.00    +0.000 C 
ENDBRANCH   8  17
ENDBRANCH   2   9
BRANCH   6  19
ATOM     19  C   UNL     1     101.409 104.380 130.628  0.00  0.00    +0.000 C 
BRANCH  19  20
ATOM     20  C   UNL     1     102.377 104.321 131.806  0.00  0.00    +0.000 C 
BRANCH  20  23
ATOM     21  C   UNL     1     101.333 105.589 133.720  0.00  0.00    +0.000 A 
ATOM     22  C   UNL     1     101.959 107.842 134.174  0.00  0.00    +0.000 A 
ATOM     23  C   UNL     1     102.224 105.582 132.659  0.00  0.00    +0.000 A 
ATOM     24  C   UNL     1     101.205 106.731 134.482  0.00  0.00    +0.000 A 
ATOM     25  C   UNL     1     102.843 107.843 133.123  0.00  0.00    +0.000 A 
ATOM     26  C   UNL     1     102.975 106.701 132.357  0.00  0.00    +0.000 A 
ENDBRANCH  20  23
ENDBRANCH  19  20
ENDBRANCH   6  19
TORSDOF 6
