REMARK minimizedAffinity -7.50258493
REMARK minimizedRMSD -1
REMARK  Name = 04_docking/output/fentanyl.pdb
REMARK  7 active torsions:
REMARK  status: ('A' for Active; 'I' for Inactive)
REMARK    1  A    between atoms: C_2  and  C_16
REMARK    2  A    between atoms: C_2  and  C_17
REMARK    3  A    between atoms: C_5  and  N_23
REMARK    4  A    between atoms: C_9  and  C_10
REMARK    5  A    between atoms: C_10  and  C_11
REMARK    6  A    between atoms: C_12  and  N_23
REMARK    7  A    between atoms: C_16  and  N_24
REMARK                            x       y       z     vdW  Elec       q    Type
REMARK                         _______ _______ _______ _____ _____    ______ ____
ROOT
ATOM      1  C   UNL     1     104.784 106.386 128.310  0.00  0.00    +0.000 C 
ATOM      2  C   UNL     1     105.279 105.154 126.124  0.00  0.00    +0.000 C 
ATOM      3  C   UNL     1     105.858 104.020 126.990  0.00  0.00    +0.000 C 
ATOM      4  C   UNL     1     106.315 104.507 128.366  0.00  0.00    +0.000 C 
ATOM      5  C   UNL     1     104.275 106.003 126.919  0.00  0.00    +0.000 C 
ATOM      6  N   UNL     1     105.200 105.189 129.056  0.00  0.00    +0.000 N 
ATOM      7  H   UNL     1     104.418 104.535 129.090  0.00  0.00    +0.000 HD
ENDROOT
BRANCH   2   9
ATOM      8  C   UNL     1     103.743 103.634 124.846  0.00  0.00    +0.000 C 
ATOM      9  N   UNL     1     104.742 104.664 124.829  0.00  0.00    +0.000 N 
ATOM     10  O   UNL     1     102.896 103.595 125.717  0.00  0.00    +0.000 OA
BRANCH   9  11
ATOM     11  C   UNL     1     105.212 105.248 123.538  0.00  0.00    +0.000 A 
ATOM     12  C   UNL     1     106.586 105.457 123.450  0.00  0.00    +0.000 A 
ATOM     13  C   UNL     1     107.167 105.993 122.313  0.00  0.00    +0.000 A 
ATOM     14  C   UNL     1     104.995 106.132 121.302  0.00  0.00    +0.000 A 
ATOM     15  C   UNL     1     106.364 106.329 121.238  0.00  0.00    +0.000 A 
ATOM     16  C   UNL     1     104.428 105.594 122.449  0.00  0.00    +0.000 A 
ENDBRANCH   9  11
BRANCH   8  17
ATOM     17  C   UNL     1     103.650 102.512 123.795  0.00  0.00    +0.000 C 
ATOM     18  C   UNL     1     104.837 101.540 123.942  0.00  0.00    +0.000 C 
ENDBRANCH   8  17
ENDBRANCH   2   9
BRANCH   6  19
ATOM     19  C   UNL     1     105.541 105.535 130.447  0.00  0.00    +0.000 C 
BRANCH  19  20
ATOM     20  C   UNL     1     105.137 104.446 131.436  0.00  0.00    +0.000 C 
BRANCH  20  23
ATOM     21  C   UNL     1     103.372 106.071 132.214  0.00  0.00    +0.000 A 
ATOM     22  C   UNL     1     101.265 105.292 133.007  0.00  0.00    +0.000 A 
ATOM     23  C   UNL     1     103.748 104.755 131.999  0.00  0.00    +0.000 A 
ATOM     24  C   UNL     1     102.117 106.337 132.720  0.00  0.00    +0.000 A 
ATOM     25  C   UNL     1     101.631 103.986 132.799  0.00  0.00    +0.000 A 
ATOM     26  C   UNL     1     102.888 103.715 132.291  0.00  0.00    +0.000 A 
ENDBRANCH  20  23
ENDBRANCH  19  20
ENDBRANCH   6  19
TORSDOF 6
