REMARK minimizedAffinity -7.38320541
REMARK minimizedRMSD -1
REMARK  Name = 04_docking/output/fentanyl.pdb
REMARK  7 active torsions:
REMARK  status: ('A' for Active; 'I' for Inactive)
REMARK    1  A    between atoms: C_2  and  C_16
REMARK    2  A    between atoms: C_2  and  C_17
REMARK    3  A    between atoms: C_5  and  N_23
REMARK    4  A    between atoms: C_9  and  C_10
REMARK    5  A    between atoms: C_10  and  C_11
REMARK    6  A    between atoms: C_12  and  N_23
REMARK    7  A    between atoms: C_16  and  N_24
REMARK                            x       y       z     vdW  Elec       q    Type
REMARK                         _______ _______ _______ _____ _____    ______ ____
ROOT
ATOM      1  C   UNL     1     104.122 104.320 126.908  0.00  0.00    +0.000 C 
ATOM      2  C   UNL     1     103.244 104.876 124.571  0.00  0.00    +0.000 C 
ATOM      3  C   UNL     1     101.922 104.215 125.000  0.00  0.00    +0.000 C 
ATOM      4  C   UNL     1     102.110 103.209 126.137  0.00  0.00    +0.000 C 
ATOM      5  C   UNL     1     104.044 105.361 125.790  0.00  0.00    +0.000 C 
ATOM      6  N   UNL     1     102.777 103.862 127.283  0.00  0.00    +0.000 N 
ATOM      7  H   UNL     1     102.214 104.673 127.540  0.00  0.00    +0.000 HD
ENDROOT
BRANCH   2   9
ATOM      8  C   UNL     1     102.128 106.993 123.812  0.00  0.00    +0.000 C 
ATOM      9  N   UNL     1     103.048 105.927 123.539  0.00  0.00    +0.000 N 
ATOM     10  O   UNL     1     102.012 107.450 124.933  0.00  0.00    +0.000 OA
BRANCH   9  11
ATOM     11  C   UNL     1     103.809 105.886 122.256  0.00  0.00    +0.000 A 
ATOM     12  C   UNL     1     105.155 106.232 122.355  0.00  0.00    +0.000 A 
ATOM     13  C   UNL     1     105.985 106.239 121.247  0.00  0.00    +0.000 A 
ATOM     14  C   UNL     1     104.132 105.550 119.887  0.00  0.00    +0.000 A 
ATOM     15  C   UNL     1     105.467 105.897 120.011  0.00  0.00    +0.000 A 
ATOM     16  C   UNL     1     103.313 105.548 121.007  0.00  0.00    +0.000 A 
ENDBRANCH   9  11
BRANCH   8  17
ATOM     17  C   UNL     1     101.227 107.644 122.746  0.00  0.00    +0.000 C 
ATOM     18  C   UNL     1      99.838 106.976 122.738  0.00  0.00    +0.000 C 
ENDBRANCH   8  17
ENDBRANCH   2   9
BRANCH   6  19
ATOM     19  C   UNL     1     102.837 102.980 128.462  0.00  0.00    +0.000 C 
BRANCH  19  20
ATOM     20  C   UNL     1     103.657 103.580 129.600  0.00  0.00    +0.000 C 
BRANCH  20  23
ATOM     21  C   UNL     1     102.945 103.488 132.018  0.00  0.00    +0.000 A 
ATOM     22  C   UNL     1     101.053 104.720 132.777  0.00  0.00    +0.000 A 
ATOM     23  C   UNL     1     102.726 103.986 130.744  0.00  0.00    +0.000 A 
ATOM     24  C   UNL     1     102.099 103.862 133.040  0.00  0.00    +0.000 A 
ATOM     25  C   UNL     1     100.828 105.217 131.517  0.00  0.00    +0.000 A 
ATOM     26  C   UNL     1     101.674 104.844 130.489  0.00  0.00    +0.000 A 
ENDBRANCH  20  23
ENDBRANCH  19  20
ENDBRANCH   6  19
TORSDOF 6
