REMARK minimizedAffinity -7.13291454
REMARK minimizedRMSD -1
REMARK  Name = 04_docking/output/fentanyl.pdb
REMARK  7 active torsions:
REMARK  status: ('A' for Active; 'I' for Inactive)
REMARK    1  A    between atoms: C_2  and  C_16
REMARK    2  A    between atoms: C_2  and  C_17
REMARK    3  A    between atoms: C_5  and  N_23
REMARK    4  A    between atoms: C_9  and  C_10
REMARK    5  A    between atoms: C_10  and  C_11
REMARK    6  A    between atoms: C_12  and  N_23
REMARK    7  A    between atoms: C_16  and  N_24
REMARK                            x       y       z     vdW  Elec       q    Type
REMARK                         _______ _______ _______ _____ _____    ______ ____
ROOT
ATOM      1  C   UNL     1     104.198 105.075 128.108  0.00  0.00    +0.000 C 
ATOM      2  C   UNL     1     102.040 104.269 126.998  0.00  0.00    +0.000 C 
ATOM      3  C   UNL     1     102.022 103.137 128.041  0.00  0.00    +0.000 C 
ATOM      4  C   UNL     1     103.413 102.835 128.603  0.00  0.00    +0.000 C 
ATOM      5  C   UNL     1     102.853 105.472 127.497  0.00  0.00    +0.000 C 
ATOM      6  N   UNL     1     104.010 104.067 129.162  0.00  0.00    +0.000 N 
ATOM      7  H   UNL     1     103.356 104.434 129.854  0.00  0.00    +0.000 HD
ENDROOT
BRANCH   2   9
ATOM      8  C   UNL     1     100.487 104.913 125.133  0.00  0.00    +0.000 C 
ATOM      9  N   UNL     1     100.678 104.631 126.527  0.00  0.00    +0.000 N 
ATOM     10  O   UNL     1     101.100 104.302 124.279  0.00  0.00    +0.000 OA
BRANCH   9  11
ATOM     11  C   UNL     1      99.530 104.678 127.479  0.00  0.00    +0.000 A 
ATOM     12  C   UNL     1      98.560 103.697 127.284  0.00  0.00    +0.000 A 
ATOM     13  C   UNL     1      97.438 103.617 128.091  0.00  0.00    +0.000 A 
ATOM     14  C   UNL     1      98.224 105.517 129.328  0.00  0.00    +0.000 A 
ATOM     15  C   UNL     1      97.273 104.532 129.115  0.00  0.00    +0.000 A 
ATOM     16  C   UNL     1      99.343 105.584 128.510  0.00  0.00    +0.000 A 
ENDBRANCH   9  11
BRANCH   8  17
ATOM     17  C   UNL     1      99.516 105.983 124.599  0.00  0.00    +0.000 C 
ATOM     18  C   UNL     1      99.920 107.378 125.117  0.00  0.00    +0.000 C 
ENDBRANCH   8  17
ENDBRANCH   2   9
BRANCH   6  19
ATOM     19  C   UNL     1     105.280 103.798 129.858  0.00  0.00    +0.000 C 
BRANCH  19  20
ATOM     20  C   UNL     1     105.306 104.375 131.270  0.00  0.00    +0.000 C 
BRANCH  20  23
ATOM     21  C   UNL     1     103.294 105.836 131.694  0.00  0.00    +0.000 A 
ATOM     22  C   UNL     1     101.313 104.930 132.660  0.00  0.00    +0.000 A 
ATOM     23  C   UNL     1     103.873 104.579 131.767  0.00  0.00    +0.000 A 
ATOM     24  C   UNL     1     102.002 106.007 132.144  0.00  0.00    +0.000 A 
ATOM     25  C   UNL     1     101.881 103.682 132.737  0.00  0.00    +0.000 A 
ATOM     26  C   UNL     1     103.176 103.506 132.287  0.00  0.00    +0.000 A 
ENDBRANCH  20  23
ENDBRANCH  19  20
ENDBRANCH   6  19
TORSDOF 6
