REMARK minimizedAffinity -7.20994186
REMARK minimizedRMSD -1
REMARK  Name = 04_docking/output/fentanyl.pdb
REMARK  7 active torsions:
REMARK  status: ('A' for Active; 'I' for Inactive)
REMARK    1  A    between atoms: C_2  and  C_16
REMARK    2  A    between atoms: C_2  and  C_17
REMARK    3  A    between atoms: C_5  and  N_23
REMARK    4  A    between atoms: C_9  and  C_10
REMARK    5  A    between atoms: C_10  and  C_11
REMARK    6  A    between atoms: C_12  and  N_23
REMARK    7  A    between atoms: C_16  and  N_24
REMARK                            x       y       z     vdW  Elec       q    Type
REMARK                         _______ _______ _______ _____ _____    ______ ____
ROOT
ATOM      1  C   UNL     1     106.144 104.293 128.499  0.00  0.00    +0.000 C 
ATOM      2  C   UNL     1     104.925 104.143 126.256  0.00  0.00    +0.000 C 
ATOM      3  C   UNL     1     104.102 105.361 126.715  0.00  0.00    +0.000 C 
ATOM      4  C   UNL     1     104.057 105.498 128.238  0.00  0.00    +0.000 C 
ATOM      5  C   UNL     1     106.272 104.074 126.990  0.00  0.00    +0.000 C 
ATOM      6  N   UNL     1     105.431 105.548 128.781  0.00  0.00    +0.000 N 
ATOM      7  H   UNL     1     105.916 106.313 128.312  0.00  0.00    +0.000 HD
ENDROOT
BRANCH   2   9
ATOM      8  C   UNL     1     105.647 105.174 124.083  0.00  0.00    +0.000 C 
ATOM      9  N   UNL     1     105.054 104.067 124.778  0.00  0.00    +0.000 N 
ATOM     10  O   UNL     1     106.564 105.804 124.574  0.00  0.00    +0.000 OA
BRANCH   9  11
ATOM     11  C   UNL     1     104.599 102.856 124.034  0.00  0.00    +0.000 A 
ATOM     12  C   UNL     1     105.326 101.695 124.293  0.00  0.00    +0.000 A 
ATOM     13  C   UNL     1     105.019 100.495 123.675  0.00  0.00    +0.000 A 
ATOM     14  C   UNL     1     103.229 101.585 122.506  0.00  0.00    +0.000 A 
ATOM     15  C   UNL     1     103.966 100.444 122.780  0.00  0.00    +0.000 A 
ATOM     16  C   UNL     1     103.550 102.781 123.133  0.00  0.00    +0.000 A 
ENDBRANCH   9  11
BRANCH   8  17
ATOM     17  C   UNL     1     105.195 105.655 122.692  0.00  0.00    +0.000 C 
ATOM     18  C   UNL     1     106.420 106.010 121.825  0.00  0.00    +0.000 C 
ENDBRANCH   8  17
ENDBRANCH   2   9
BRANCH   6  19
ATOM     19  C   UNL     1     105.443 105.840 130.224  0.00  0.00    +0.000 C 
BRANCH  19  20
ATOM     20  C   UNL     1     105.119 104.614 131.072  0.00  0.00    +0.000 C 
BRANCH  20  23
ATOM     21  C   UNL     1     103.409 106.132 132.138  0.00  0.00    +0.000 A 
ATOM     22  C   UNL     1     101.452 105.233 133.159  0.00  0.00    +0.000 A 
ATOM     23  C   UNL     1     103.803 104.842 131.820  0.00  0.00    +0.000 A 
ATOM     24  C   UNL     1     102.221 106.324 132.811  0.00  0.00    +0.000 A 
ATOM     25  C   UNL     1     101.838 103.953 132.849  0.00  0.00    +0.000 A 
ATOM     26  C   UNL     1     103.027 103.755 132.173  0.00  0.00    +0.000 A 
ENDBRANCH  20  23
ENDBRANCH  19  20
ENDBRANCH   6  19
TORSDOF 6
