REMARK minimizedAffinity -7.85410929
REMARK minimizedRMSD -1
REMARK  Name = 04_docking/output/fentanyl.pdb
REMARK  7 active torsions:
REMARK  status: ('A' for Active; 'I' for Inactive)
REMARK    1  A    between atoms: C_2  and  C_16
REMARK    2  A    between atoms: C_2  and  C_17
REMARK    3  A    between atoms: C_5  and  N_23
REMARK    4  A    between atoms: C_9  and  C_10
REMARK    5  A    between atoms: C_10  and  C_11
REMARK    6  A    between atoms: C_12  and  N_23
REMARK    7  A    between atoms: C_16  and  N_24
REMARK                            x       y       z     vdW  Elec       q    Type
REMARK                         _______ _______ _______ _____ _____    ______ ____
ROOT
ATOM      1  C   UNL     1     100.992 103.371 126.147  0.00  0.00    +0.000 C 
ATOM      2  C   UNL     1     101.984 104.594 128.162  0.00  0.00    +0.000 C 
ATOM      3  C   UNL     1     100.538 104.786 128.654  0.00  0.00    +0.000 C 
ATOM      4  C   UNL     1      99.518 104.724 127.516  0.00  0.00    +0.000 C 
ATOM      5  C   UNL     1     102.093 103.394 127.210  0.00  0.00    +0.000 C 
ATOM      6  N   UNL     1      99.666 103.453 126.775  0.00  0.00    +0.000 N 
ATOM      7  H   UNL     1      99.575 102.694 127.451  0.00  0.00    +0.000 HD
ENDROOT
BRANCH   2   9
ATOM      8  C   UNL     1     104.361 104.451 128.960  0.00  0.00    +0.000 C 
ATOM      9  N   UNL     1     102.965 104.553 129.278  0.00  0.00    +0.000 N 
ATOM     10  O   UNL     1     104.825 105.012 127.986  0.00  0.00    +0.000 OA
BRANCH   9  11
ATOM     11  C   UNL     1     102.511 104.638 130.696  0.00  0.00    +0.000 A 
ATOM     12  C   UNL     1     102.524 105.918 131.246  0.00  0.00    +0.000 A 
ATOM     13  C   UNL     1     102.129 106.150 132.552  0.00  0.00    +0.000 A 
ATOM     14  C   UNL     1     101.690 103.805 132.809  0.00  0.00    +0.000 A 
ATOM     15  C   UNL     1     101.712 105.088 133.332  0.00  0.00    +0.000 A 
ATOM     16  C   UNL     1     102.089 103.589 131.497  0.00  0.00    +0.000 A 
ENDBRANCH   9  11
BRANCH   8  17
ATOM     17  C   UNL     1     105.375 103.649 129.796  0.00  0.00    +0.000 C 
ATOM     18  C   UNL     1     106.125 104.584 130.767  0.00  0.00    +0.000 C 
ENDBRANCH   8  17
ENDBRANCH   2   9
BRANCH   6  19
ATOM     19  C   UNL     1      98.603 103.274 125.771  0.00  0.00    +0.000 C 
BRANCH  19  20
ATOM     20  C   UNL     1      97.801 101.994 125.990  0.00  0.00    +0.000 C 
BRANCH  20  23
ATOM     21  C   UNL     1      95.339 102.541 125.956  0.00  0.00    +0.000 A 
ATOM     22  C   UNL     1      94.148 102.924 127.983  0.00  0.00    +0.000 A 
ATOM     23  C   UNL     1      96.487 102.327 126.701  0.00  0.00    +0.000 A 
ATOM     24  C   UNL     1      94.161 102.839 126.608  0.00  0.00    +0.000 A 
ATOM     25  C   UNL     1      95.283 102.715 128.728  0.00  0.00    +0.000 A 
ATOM     26  C   UNL     1      96.465 102.415 128.079  0.00  0.00    +0.000 A 
ENDBRANCH  20  23
ENDBRANCH  19  20
ENDBRANCH   6  19
TORSDOF 6
