REMARK minimizedAffinity -6.71700287
REMARK minimizedRMSD -1
REMARK  Name = 04_docking/output/fentanyl.pdb
REMARK  7 active torsions:
REMARK  status: ('A' for Active; 'I' for Inactive)
REMARK    1  A    between atoms: C_2  and  C_16
REMARK    2  A    between atoms: C_2  and  C_17
REMARK    3  A    between atoms: C_5  and  N_23
REMARK    4  A    between atoms: C_9  and  C_10
REMARK    5  A    between atoms: C_10  and  C_11
REMARK    6  A    between atoms: C_12  and  N_23
REMARK    7  A    between atoms: C_16  and  N_24
REMARK                            x       y       z     vdW  Elec       q    Type
REMARK                         _______ _______ _______ _____ _____    ______ ____
ROOT
ATOM      1  C   UNL     1     100.904 104.529 126.076  0.00  0.00    +0.000 C 
ATOM      2  C   UNL     1     101.792 105.379 128.319  0.00  0.00    +0.000 C 
ATOM      3  C   UNL     1     100.328 105.406 128.795  0.00  0.00    +0.000 C 
ATOM      4  C   UNL     1      99.337 105.522 127.637  0.00  0.00    +0.000 C 
ATOM      5  C   UNL     1     101.980 104.393 127.156  0.00  0.00    +0.000 C 
ATOM      6  N   UNL     1      99.562 104.428 126.668  0.00  0.00    +0.000 N 
ATOM      7  H   UNL     1      99.495 103.549 127.182  0.00  0.00    +0.000 HD
ENDROOT
BRANCH   2   9
ATOM      8  C   UNL     1     104.153 105.120 129.135  0.00  0.00    +0.000 C 
ATOM      9  N   UNL     1     102.750 105.164 129.434  0.00  0.00    +0.000 N 
ATOM     10  O   UNL     1     104.632 105.831 128.272  0.00  0.00    +0.000 OA
BRANCH   9  11
ATOM     11  C   UNL     1     102.266 105.021 130.839  0.00  0.00    +0.000 A 
ATOM     12  C   UNL     1     102.281 106.192 131.592  0.00  0.00    +0.000 A 
ATOM     13  C   UNL     1     101.860 106.212 132.911  0.00  0.00    +0.000 A 
ATOM     14  C   UNL     1     101.392 103.863 132.769  0.00  0.00    +0.000 A 
ATOM     15  C   UNL     1     101.415 105.041 133.497  0.00  0.00    +0.000 A 
ATOM     16  C   UNL     1     101.817 103.860 131.447  0.00  0.00    +0.000 A 
ENDBRANCH   9  11
BRANCH   8  17
ATOM     17  C   UNL     1     105.156 104.200 129.855  0.00  0.00    +0.000 C 
ATOM     18  C   UNL     1     106.031 105.018 130.825  0.00  0.00    +0.000 C 
ENDBRANCH   8  17
ENDBRANCH   2   9
BRANCH   6  19
ATOM     19  C   UNL     1      98.531 104.401 125.617  0.00  0.00    +0.000 C 
BRANCH  19  20
ATOM     20  C   UNL     1      98.831 105.370 124.477  0.00  0.00    +0.000 C 
BRANCH  20  23
ATOM     21  C   UNL     1      97.899 107.639 125.066  0.00  0.00    +0.000 A 
ATOM     22  C   UNL     1      95.759 108.320 124.269  0.00  0.00    +0.000 A 
ATOM     23  C   UNL     1      97.732 106.433 124.405  0.00  0.00    +0.000 A 
ATOM     24  C   UNL     1      96.901 108.588 124.993  0.00  0.00    +0.000 A 
ATOM     25  C   UNL     1      95.587 107.127 123.613  0.00  0.00    +0.000 A 
ATOM     26  C   UNL     1      96.584 106.172 123.683  0.00  0.00    +0.000 A 
ENDBRANCH  20  23
ENDBRANCH  19  20
ENDBRANCH   6  19
TORSDOF 6
