REMARK minimizedAffinity -6.93762684
REMARK minimizedRMSD -1
REMARK  Name = 04_docking/output/fentanyl.pdb
REMARK  7 active torsions:
REMARK  status: ('A' for Active; 'I' for Inactive)
REMARK    1  A    between atoms: C_2  and  C_16
REMARK    2  A    between atoms: C_2  and  C_17
REMARK    3  A    between atoms: C_5  and  N_23
REMARK    4  A    between atoms: C_9  and  C_10
REMARK    5  A    between atoms: C_10  and  C_11
REMARK    6  A    between atoms: C_12  and  N_23
REMARK    7  A    between atoms: C_16  and  N_24
REMARK                            x       y       z     vdW  Elec       q    Type
REMARK                         _______ _______ _______ _____ _____    ______ ____
ROOT
ATOM      1  C   UNL     1     102.683 106.268 126.869  0.00  0.00    +0.000 C 
ATOM      2  C   UNL     1     100.604 105.882 125.429  0.00  0.00    +0.000 C 
ATOM      3  C   UNL     1      99.868 105.523 126.732  0.00  0.00    +0.000 C 
ATOM      4  C   UNL     1     100.820 105.051 127.832  0.00  0.00    +0.000 C 
ATOM      5  C   UNL     1     101.824 106.773 125.707  0.00  0.00    +0.000 C 
ATOM      6  N   UNL     1     101.861 106.073 128.072  0.00  0.00    +0.000 N 
ATOM      7  H   UNL     1     101.383 106.948 128.288  0.00  0.00    +0.000 HD
ENDROOT
BRANCH   2   9
ATOM      8  C   UNL     1      98.693 107.384 124.797  0.00  0.00    +0.000 C 
ATOM      9  N   UNL     1      99.693 106.437 124.394  0.00  0.00    +0.000 N 
ATOM     10  O   UNL     1      98.918 108.201 125.670  0.00  0.00    +0.000 OA
BRANCH   9  11
ATOM     11  C   UNL     1      99.830 106.036 122.963  0.00  0.00    +0.000 A 
ATOM     12  C   UNL     1     100.747 106.781 122.225  0.00  0.00    +0.000 A 
ATOM     13  C   UNL     1     100.979 106.523 120.885  0.00  0.00    +0.000 A 
ATOM     14  C   UNL     1      99.368 104.747 120.975  0.00  0.00    +0.000 A 
ATOM     15  C   UNL     1     100.286 105.501 120.262  0.00  0.00    +0.000 A 
ATOM     16  C   UNL     1      99.147 105.018 122.317  0.00  0.00    +0.000 A 
ENDBRANCH   9  11
BRANCH   8  17
ATOM     17  C   UNL     1      97.283 107.458 124.182  0.00  0.00    +0.000 C 
ATOM     18  C   UNL     1      96.444 106.242 124.623  0.00  0.00    +0.000 C 
ENDBRANCH   8  17
ENDBRANCH   2   9
BRANCH   6  19
ATOM     19  C   UNL     1     102.706 105.739 129.231  0.00  0.00    +0.000 C 
BRANCH  19  20
ATOM     20  C   UNL     1     102.156 104.566 130.037  0.00  0.00    +0.000 C 
BRANCH  20  23
ATOM     21  C   UNL     1     101.150 104.192 132.320  0.00  0.00    +0.000 A 
ATOM     22  C   UNL     1     101.348 105.846 134.023  0.00  0.00    +0.000 A 
ATOM     23  C   UNL     1     101.864 105.020 131.469  0.00  0.00    +0.000 A 
ATOM     24  C   UNL     1     100.895 104.613 133.608  0.00  0.00    +0.000 A 
ATOM     25  C   UNL     1     102.055 106.673 133.185  0.00  0.00    +0.000 A 
ATOM     26  C   UNL     1     102.314 106.255 131.893  0.00  0.00    +0.000 A 
ENDBRANCH  20  23
ENDBRANCH  19  20
ENDBRANCH   6  19
TORSDOF 6
