REMARK minimizedAffinity -6.65847588
REMARK minimizedRMSD -1
REMARK  Name = 04_docking/output/fentanyl.pdb
REMARK  7 active torsions:
REMARK  status: ('A' for Active; 'I' for Inactive)
REMARK    1  A    between atoms: C_2  and  C_16
REMARK    2  A    between atoms: C_2  and  C_17
REMARK    3  A    between atoms: C_5  and  N_23
REMARK    4  A    between atoms: C_9  and  C_10
REMARK    5  A    between atoms: C_10  and  C_11
REMARK    6  A    between atoms: C_12  and  N_23
REMARK    7  A    between atoms: C_16  and  N_24
REMARK                            x       y       z     vdW  Elec       q    Type
REMARK                         _______ _______ _______ _____ _____    ______ ____
ROOT
ATOM      1  C   UNL     1     101.065 103.161 126.665  0.00  0.00    +0.000 C 
ATOM      2  C   UNL     1     102.198 104.407 128.590  0.00  0.00    +0.000 C 
ATOM      3  C   UNL     1     100.823 105.033 128.886  0.00  0.00    +0.000 C 
ATOM      4  C   UNL     1      99.908 105.046 127.660  0.00  0.00    +0.000 C 
ATOM      5  C   UNL     1     102.052 103.079 127.831  0.00  0.00    +0.000 C 
ATOM      6  N   UNL     1      99.766 103.676 127.123  0.00  0.00    +0.000 N 
ATOM      7  H   UNL     1      99.428 103.085 127.883  0.00  0.00    +0.000 HD
ENDROOT
BRANCH   2   9
ATOM      8  C   UNL     1     102.412 104.308 131.090  0.00  0.00    +0.000 C 
ATOM      9  N   UNL     1     103.049 104.301 129.804  0.00  0.00    +0.000 N 
ATOM     10  O   UNL     1     101.335 103.771 131.260  0.00  0.00    +0.000 OA
BRANCH   9  11
ATOM     11  C   UNL     1     104.530 104.168 129.687  0.00  0.00    +0.000 A 
ATOM     12  C   UNL     1     105.133 105.037 128.780  0.00  0.00    +0.000 A 
ATOM     13  C   UNL     1     106.501 105.028 128.566  0.00  0.00    +0.000 A 
ATOM     14  C   UNL     1     106.714 103.261 130.175  0.00  0.00    +0.000 A 
ATOM     15  C   UNL     1     107.290 104.135 129.268  0.00  0.00    +0.000 A 
ATOM     16  C   UNL     1     105.341 103.282 130.378  0.00  0.00    +0.000 A 
ENDBRANCH   9  11
BRANCH   8  17
ATOM     17  C   UNL     1     103.015 104.972 132.342  0.00  0.00    +0.000 C 
ATOM     18  C   UNL     1     102.026 105.999 132.930  0.00  0.00    +0.000 C 
ENDBRANCH   8  17
ENDBRANCH   2   9
BRANCH   6  19
ATOM     19  C   UNL     1      98.769 103.609 126.040  0.00  0.00    +0.000 C 
BRANCH  19  20
ATOM     20  C   UNL     1      97.565 104.510 126.297  0.00  0.00    +0.000 C 
BRANCH  20  23
ATOM     21  C   UNL     1      95.454 103.133 126.205  0.00  0.00    +0.000 A 
ATOM     22  C   UNL     1      94.479 102.265 128.198  0.00  0.00    +0.000 A 
ATOM     23  C   UNL     1      96.455 103.703 126.974  0.00  0.00    +0.000 A 
ATOM     24  C   UNL     1      94.460 102.407 126.827  0.00  0.00    +0.000 A 
ATOM     25  C   UNL     1      95.467 102.828 128.967  0.00  0.00    +0.000 A 
ATOM     26  C   UNL     1      96.465 103.556 128.348  0.00  0.00    +0.000 A 
ENDBRANCH  20  23
ENDBRANCH  19  20
ENDBRANCH   6  19
TORSDOF 6
