REMARK minimizedAffinity -6.80621815
REMARK minimizedRMSD -1
REMARK  Name = 04_docking/output/fentanyl.pdb
REMARK  7 active torsions:
REMARK  status: ('A' for Active; 'I' for Inactive)
REMARK    1  A    between atoms: C_2  and  C_16
REMARK    2  A    between atoms: C_2  and  C_17
REMARK    3  A    between atoms: C_5  and  N_23
REMARK    4  A    between atoms: C_9  and  C_10
REMARK    5  A    between atoms: C_10  and  C_11
REMARK    6  A    between atoms: C_12  and  N_23
REMARK    7  A    between atoms: C_16  and  N_24
REMARK                            x       y       z     vdW  Elec       q    Type
REMARK                         _______ _______ _______ _____ _____    ______ ____
ROOT
ATOM      1  C   UNL     1     102.281 103.624 126.450  0.00  0.00    +0.000 C 
ATOM      2  C   UNL     1     102.860 105.010 128.520  0.00  0.00    +0.000 C 
ATOM      3  C   UNL     1     101.379 105.426 128.555  0.00  0.00    +0.000 C 
ATOM      4  C   UNL     1     100.705 105.312 127.187  0.00  0.00    +0.000 C 
ATOM      5  C   UNL     1     103.046 103.680 127.774  0.00  0.00    +0.000 C 
ATOM      6  N   UNL     1     100.861 103.939 126.660  0.00  0.00    +0.000 N 
ATOM      7  H   UNL     1     100.483 103.301 127.361  0.00  0.00    +0.000 HD
ENDROOT
BRANCH   2   9
ATOM      8  C   UNL     1     104.914 105.153 129.958  0.00  0.00    +0.000 C 
ATOM      9  N   UNL     1     103.488 105.023 129.867  0.00  0.00    +0.000 N 
ATOM     10  O   UNL     1     105.531 105.852 129.177  0.00  0.00    +0.000 OA
BRANCH   9  11
ATOM     11  C   UNL     1     102.652 104.927 131.099  0.00  0.00    +0.000 A 
ATOM     12  C   UNL     1     102.486 106.121 131.796  0.00  0.00    +0.000 A 
ATOM     13  C   UNL     1     101.736 106.185 132.958  0.00  0.00    +0.000 A 
ATOM     14  C   UNL     1     101.286 103.835 132.765  0.00  0.00    +0.000 A 
ATOM     15  C   UNL     1     101.136 105.036 133.440  0.00  0.00    +0.000 A 
ATOM     16  C   UNL     1     102.042 103.789 131.601  0.00  0.00    +0.000 A 
ENDBRANCH   9  11
BRANCH   8  17
ATOM     17  C   UNL     1     105.775 104.444 131.020  0.00  0.00    +0.000 C 
ATOM     18  C   UNL     1     106.467 103.209 130.410  0.00  0.00    +0.000 C 
ENDBRANCH   8  17
ENDBRANCH   2   9
BRANCH   6  19
ATOM     19  C   UNL     1     100.093 103.734 125.420  0.00  0.00    +0.000 C 
BRANCH  19  20
ATOM     20  C   UNL     1     100.990 103.487 124.211  0.00  0.00    +0.000 C 
BRANCH  20  23
ATOM     21  C   UNL     1     100.194 104.499 122.042  0.00  0.00    +0.000 A 
ATOM     22  C   UNL     1     100.675 106.771 121.510  0.00  0.00    +0.000 A 
ATOM     23  C   UNL     1     100.874 104.663 123.238  0.00  0.00    +0.000 A 
ATOM     24  C   UNL     1     100.095 105.566 121.175  0.00  0.00    +0.000 A 
ATOM     25  C   UNL     1     101.351 106.940 122.693  0.00  0.00    +0.000 A 
ATOM     26  C   UNL     1     101.452 105.874 123.565  0.00  0.00    +0.000 A 
ENDBRANCH  20  23
ENDBRANCH  19  20
ENDBRANCH   6  19
TORSDOF 6
