REMARK minimizedAffinity -7.97249126
REMARK minimizedRMSD -1
REMARK  Name = 04_docking/output/fentanyl.pdb
REMARK  7 active torsions:
REMARK  status: ('A' for Active; 'I' for Inactive)
REMARK    1  A    between atoms: C_2  and  C_16
REMARK    2  A    between atoms: C_2  and  C_17
REMARK    3  A    between atoms: C_5  and  N_23
REMARK    4  A    between atoms: C_9  and  C_10
REMARK    5  A    between atoms: C_10  and  C_11
REMARK    6  A    between atoms: C_12  and  N_23
REMARK    7  A    between atoms: C_16  and  N_24
REMARK                            x       y       z     vdW  Elec       q    Type
REMARK                         _______ _______ _______ _____ _____    ______ ____
ROOT
ATOM      1  C   UNL     1     100.343 105.019 127.477  0.00  0.00    +0.000 C 
ATOM      2  C   UNL     1     102.589 104.949 128.698  0.00  0.00    +0.000 C 
ATOM      3  C   UNL     1     102.977 106.198 127.885  0.00  0.00    +0.000 C 
ATOM      4  C   UNL     1     102.183 106.320 126.584  0.00  0.00    +0.000 C 
ATOM      5  C   UNL     1     101.063 104.811 128.811  0.00  0.00    +0.000 C 
ATOM      6  N   UNL     1     100.733 106.301 126.873  0.00  0.00    +0.000 N 
ATOM      7  H   UNL     1     100.547 107.049 127.541  0.00  0.00    +0.000 HD
ENDROOT
BRANCH   2   9
ATOM      8  C   UNL     1     104.716 104.767 130.021  0.00  0.00    +0.000 C 
ATOM      9  N   UNL     1     103.285 104.884 130.009  0.00  0.00    +0.000 N 
ATOM     10  O   UNL     1     105.398 105.331 129.187  0.00  0.00    +0.000 OA
BRANCH   9  11
ATOM     11  C   UNL     1     102.516 104.962 131.285  0.00  0.00    +0.000 A 
ATOM     12  C   UNL     1     102.492 106.218 131.886  0.00  0.00    +0.000 A 
ATOM     13  C   UNL     1     101.818 106.442 133.074  0.00  0.00    +0.000 A 
ATOM     14  C   UNL     1     101.163 104.133 133.105  0.00  0.00    +0.000 A 
ATOM     15  C   UNL     1     101.152 105.393 133.682  0.00  0.00    +0.000 A 
ATOM     16  C   UNL     1     101.843 103.926 131.914  0.00  0.00    +0.000 A 
ENDBRANCH   9  11
BRANCH   8  17
ATOM     17  C   UNL     1     105.501 103.944 131.059  0.00  0.00    +0.000 C 
ATOM     18  C   UNL     1     106.582 103.095 130.361  0.00  0.00    +0.000 C 
ENDBRANCH   8  17
ENDBRANCH   2   9
BRANCH   6  19
ATOM     19  C   UNL     1      99.928 106.577 125.671  0.00  0.00    +0.000 C 
BRANCH  19  20
ATOM     20  C   UNL     1      99.161 107.892 125.770  0.00  0.00    +0.000 C 
BRANCH  20  23
ATOM     21  C   UNL     1      97.657 106.711 124.125  0.00  0.00    +0.000 A 
ATOM     22  C   UNL     1      95.527 107.615 123.557  0.00  0.00    +0.000 A 
ATOM     23  C   UNL     1      97.858 107.788 124.974  0.00  0.00    +0.000 A 
ATOM     24  C   UNL     1      96.479 106.628 123.414  0.00  0.00    +0.000 A 
ATOM     25  C   UNL     1      95.720 108.684 124.395  0.00  0.00    +0.000 A 
ATOM     26  C   UNL     1      96.899 108.772 125.110  0.00  0.00    +0.000 A 
ENDBRANCH  20  23
ENDBRANCH  19  20
ENDBRANCH   6  19
TORSDOF 6
