REMARK minimizedAffinity -8.19659996
REMARK minimizedRMSD -1
REMARK  Name = 04_docking/output/fentanyl.pdb
REMARK  7 active torsions:
REMARK  status: ('A' for Active; 'I' for Inactive)
REMARK    1  A    between atoms: C_2  and  C_16
REMARK    2  A    between atoms: C_2  and  C_17
REMARK    3  A    between atoms: C_5  and  N_23
REMARK    4  A    between atoms: C_9  and  C_10
REMARK    5  A    between atoms: C_10  and  C_11
REMARK    6  A    between atoms: C_12  and  N_23
REMARK    7  A    between atoms: C_16  and  N_24
REMARK                            x       y       z     vdW  Elec       q    Type
REMARK                         _______ _______ _______ _____ _____    ______ ____
ROOT
ATOM      1  C   UNL     1     100.914 103.407 126.699  0.00  0.00    +0.000 C 
ATOM      2  C   UNL     1     101.871 105.068 128.392  0.00  0.00    +0.000 C 
ATOM      3  C   UNL     1     100.419 105.498 128.667  0.00  0.00    +0.000 C 
ATOM      4  C   UNL     1      99.485 105.196 127.494  0.00  0.00    +0.000 C 
ATOM      5  C   UNL     1     101.929 103.644 127.818  0.00  0.00    +0.000 C 
ATOM      6  N   UNL     1      99.559 103.761 127.146  0.00  0.00    +0.000 N 
ATOM      7  H   UNL     1      99.343 103.232 127.991  0.00  0.00    +0.000 HD
ENDROOT
BRANCH   2   9
ATOM      8  C   UNL     1     104.133 105.607 129.339  0.00  0.00    +0.000 C 
ATOM      9  N   UNL     1     102.757 105.267 129.567  0.00  0.00    +0.000 N 
ATOM     10  O   UNL     1     104.455 106.331 128.417  0.00  0.00    +0.000 OA
BRANCH   9  11
ATOM     11  C   UNL     1     102.224 105.138 130.955  0.00  0.00    +0.000 A 
ATOM     12  C   UNL     1     102.195 106.322 131.689  0.00  0.00    +0.000 A 
ATOM     13  C   UNL     1     101.726 106.356 132.992  0.00  0.00    +0.000 A 
ATOM     14  C   UNL     1     101.294 103.998 132.870  0.00  0.00    +0.000 A 
ATOM     15  C   UNL     1     101.275 105.188 133.579  0.00  0.00    +0.000 A 
ATOM     16  C   UNL     1     101.767 103.981 131.565  0.00  0.00    +0.000 A 
ENDBRANCH   9  11
BRANCH   8  17
ATOM     17  C   UNL     1     105.297 105.107 130.215  0.00  0.00    +0.000 C 
ATOM     18  C   UNL     1     105.621 103.636 129.884  0.00  0.00    +0.000 C 
ENDBRANCH   8  17
ENDBRANCH   2   9
BRANCH   6  19
ATOM     19  C   UNL     1      98.561 103.388 126.129  0.00  0.00    +0.000 C 
BRANCH  19  20
ATOM     20  C   UNL     1      97.309 104.258 126.192  0.00  0.00    +0.000 C 
BRANCH  20  23
ATOM     21  C   UNL     1      95.170 102.926 126.312  0.00  0.00    +0.000 A 
ATOM     22  C   UNL     1      94.280 102.241 128.413  0.00  0.00    +0.000 A 
ATOM     23  C   UNL     1      96.219 103.532 126.984  0.00  0.00    +0.000 A 
ATOM     24  C   UNL     1      94.196 102.274 127.038  0.00  0.00    +0.000 A 
ATOM     25  C   UNL     1      95.315 102.841 129.086  0.00  0.00    +0.000 A 
ATOM     26  C   UNL     1      96.295 103.495 128.363  0.00  0.00    +0.000 A 
ENDBRANCH  20  23
ENDBRANCH  19  20
ENDBRANCH   6  19
TORSDOF 6
