REMARK minimizedAffinity -6.99895525
REMARK minimizedRMSD -1
REMARK  Name = 04_docking/output/fentanyl.pdb
REMARK  7 active torsions:
REMARK  status: ('A' for Active; 'I' for Inactive)
REMARK    1  A    between atoms: C_2  and  C_16
REMARK    2  A    between atoms: C_2  and  C_17
REMARK    3  A    between atoms: C_5  and  N_23
REMARK    4  A    between atoms: C_9  and  C_10
REMARK    5  A    between atoms: C_10  and  C_11
REMARK    6  A    between atoms: C_12  and  N_23
REMARK    7  A    between atoms: C_16  and  N_24
REMARK                            x       y       z     vdW  Elec       q    Type
REMARK                         _______ _______ _______ _____ _____    ______ ____
ROOT
ATOM      1  C   UNL     1     100.083 104.661 128.177  0.00  0.00    +0.000 C 
ATOM      2  C   UNL     1      99.833 105.993 126.008  0.00  0.00    +0.000 C 
ATOM      3  C   UNL     1     101.369 105.961 125.908  0.00  0.00    +0.000 C 
ATOM      4  C   UNL     1     102.042 105.762 127.267  0.00  0.00    +0.000 C 
ATOM      5  C   UNL     1      99.308 104.835 126.869  0.00  0.00    +0.000 C 
ATOM      6  N   UNL     1     101.523 104.536 127.912  0.00  0.00    +0.000 N 
ATOM      7  H   UNL     1     101.672 103.764 127.261  0.00  0.00    +0.000 HD
ENDROOT
BRANCH   2   9
ATOM      8  C   UNL     1      99.720 105.319 123.592  0.00  0.00    +0.000 C 
ATOM      9  N   UNL     1      99.177 106.084 124.678  0.00  0.00    +0.000 N 
ATOM     10  O   UNL     1     100.189 104.212 123.777  0.00  0.00    +0.000 OA
BRANCH   9  11
ATOM     11  C   UNL     1      97.967 106.934 124.482  0.00  0.00    +0.000 A 
ATOM     12  C   UNL     1      97.909 108.075 125.279  0.00  0.00    +0.000 A 
ATOM     13  C   UNL     1      96.845 108.958 125.206  0.00  0.00    +0.000 A 
ATOM     14  C   UNL     1      95.847 107.574 123.518  0.00  0.00    +0.000 A 
ATOM     15  C   UNL     1      95.813 108.702 124.321  0.00  0.00    +0.000 A 
ATOM     16  C   UNL     1      96.921 106.699 123.603  0.00  0.00    +0.000 A 
ENDBRANCH   9  11
BRANCH   8  17
ATOM     17  C   UNL     1      99.757 105.808 122.132  0.00  0.00    +0.000 C 
ATOM     18  C   UNL     1     100.945 106.767 121.920  0.00  0.00    +0.000 C 
ENDBRANCH   8  17
ENDBRANCH   2   9
BRANCH   6  19
ATOM     19  C   UNL     1     102.254 104.213 129.149  0.00  0.00    +0.000 C 
BRANCH  19  20
ATOM     20  C   UNL     1     102.686 105.460 129.916  0.00  0.00    +0.000 C 
BRANCH  20  23
ATOM     21  C   UNL     1     101.379 104.311 131.742  0.00  0.00    +0.000 A 
ATOM     22  C   UNL     1     101.104 105.338 133.874  0.00  0.00    +0.000 A 
ATOM     23  C   UNL     1     102.117 105.411 131.336  0.00  0.00    +0.000 A 
ATOM     24  C   UNL     1     100.872 104.278 133.024  0.00  0.00    +0.000 A 
ATOM     25  C   UNL     1     101.833 106.432 133.478  0.00  0.00    +0.000 A 
ATOM     26  C   UNL     1     102.343 106.469 132.194  0.00  0.00    +0.000 A 
ENDBRANCH  20  23
ENDBRANCH  19  20
ENDBRANCH   6  19
TORSDOF 6
