REMARK minimizedAffinity -6.98083401
REMARK minimizedRMSD -1
REMARK  Name = 04_docking/output/fentanyl.pdb
REMARK  7 active torsions:
REMARK  status: ('A' for Active; 'I' for Inactive)
REMARK    1  A    between atoms: C_2  and  C_16
REMARK    2  A    between atoms: C_2  and  C_17
REMARK    3  A    between atoms: C_5  and  N_23
REMARK    4  A    between atoms: C_9  and  C_10
REMARK    5  A    between atoms: C_10  and  C_11
REMARK    6  A    between atoms: C_12  and  N_23
REMARK    7  A    between atoms: C_16  and  N_24
REMARK                            x       y       z     vdW  Elec       q    Type
REMARK                         _______ _______ _______ _____ _____    ______ ____
ROOT
ATOM      1  C   UNL     1     100.195 105.286 130.350  0.00  0.00    +0.000 C 
ATOM      2  C   UNL     1     101.751 105.225 128.321  0.00  0.00    +0.000 C 
ATOM      3  C   UNL     1     102.824 104.652 129.264  0.00  0.00    +0.000 C 
ATOM      4  C   UNL     1     102.575 105.018 130.728  0.00  0.00    +0.000 C 
ATOM      5  C   UNL     1     100.338 104.961 128.862  0.00  0.00    +0.000 C 
ATOM      6  N   UNL     1     101.221 104.583 131.133  0.00  0.00    +0.000 N 
ATOM      7  H   UNL     1     101.153 103.583 130.941  0.00  0.00    +0.000 HD
ENDROOT
BRANCH   2   9
ATOM      8  C   UNL     1     102.365 103.439 126.666  0.00  0.00    +0.000 C 
ATOM      9  N   UNL     1     101.935 104.786 126.914  0.00  0.00    +0.000 N 
ATOM     10  O   UNL     1     101.987 102.521 127.368  0.00  0.00    +0.000 OA
BRANCH   9  11
ATOM     11  C   UNL     1     101.658 105.718 125.781  0.00  0.00    +0.000 A 
ATOM     12  C   UNL     1     102.496 106.828 125.709  0.00  0.00    +0.000 A 
ATOM     13  C   UNL     1     102.357 107.778 124.712  0.00  0.00    +0.000 A 
ATOM     14  C   UNL     1     100.515 106.529 123.815  0.00  0.00    +0.000 A 
ATOM     15  C   UNL     1     101.362 107.624 123.764  0.00  0.00    +0.000 A 
ATOM     16  C   UNL     1     100.667 105.585 124.821  0.00  0.00    +0.000 A 
ENDBRANCH   9  11
BRANCH   8  17
ATOM     17  C   UNL     1     103.315 103.038 125.522  0.00  0.00    +0.000 C 
ATOM     18  C   UNL     1     104.759 103.466 125.851  0.00  0.00    +0.000 C 
ENDBRANCH   8  17
ENDBRANCH   2   9
BRANCH   6  19
ATOM     19  C   UNL     1     100.992 104.767 132.577  0.00  0.00    +0.000 C 
BRANCH  19  20
ATOM     20  C   UNL     1     102.211 105.338 133.294  0.00  0.00    +0.000 C 
BRANCH  20  23
ATOM     21  C   UNL     1     101.582 106.795 135.255  0.00  0.00    +0.000 A 
ATOM     22  C   UNL     1     101.229 109.133 134.970  0.00  0.00    +0.000 A 
ATOM     23  C   UNL     1     101.859 106.698 133.901  0.00  0.00    +0.000 A 
ATOM     24  C   UNL     1     101.267 108.026 135.790  0.00  0.00    +0.000 A 
ATOM     25  C   UNL     1     101.500 109.045 133.627  0.00  0.00    +0.000 A 
ATOM     26  C   UNL     1     101.817 107.813 133.087  0.00  0.00    +0.000 A 
ENDBRANCH  20  23
ENDBRANCH  19  20
ENDBRANCH   6  19
TORSDOF 6
