REMARK minimizedAffinity -6.51319361
REMARK minimizedRMSD -1
REMARK  Name = 04_docking/output/fentanyl.pdb
REMARK  7 active torsions:
REMARK  status: ('A' for Active; 'I' for Inactive)
REMARK    1  A    between atoms: C_2  and  C_16
REMARK    2  A    between atoms: C_2  and  C_17
REMARK    3  A    between atoms: C_5  and  N_23
REMARK    4  A    between atoms: C_9  and  C_10
REMARK    5  A    between atoms: C_10  and  C_11
REMARK    6  A    between atoms: C_12  and  N_23
REMARK    7  A    between atoms: C_16  and  N_24
REMARK                            x       y       z     vdW  Elec       q    Type
REMARK                         _______ _______ _______ _____ _____    ______ ____
ROOT
ATOM      1  C   UNL     1      95.817 102.559 123.435  0.00  0.00    +0.000 C 
ATOM      2  C   UNL     1      97.205 100.777 122.235  0.00  0.00    +0.000 C 
ATOM      3  C   UNL     1      98.221 100.913 123.383  0.00  0.00    +0.000 C 
ATOM      4  C   UNL     1      98.134 102.267 124.088  0.00  0.00    +0.000 C 
ATOM      5  C   UNL     1      95.805 101.231 122.675  0.00  0.00    +0.000 C 
ATOM      6  N   UNL     1      96.754 102.499 124.566  0.00  0.00    +0.000 N 
ATOM      7  H   UNL     1      96.502 101.708 125.160  0.00  0.00    +0.000 HD
ENDROOT
BRANCH   2   9
ATOM      8  C   UNL     1      96.863  99.301 120.232  0.00  0.00    +0.000 C 
ATOM      9  N   UNL     1      97.220  99.426 121.617  0.00  0.00    +0.000 N 
ATOM     10  O   UNL     1      97.169 100.158 119.426  0.00  0.00    +0.000 OA
BRANCH   9  11
ATOM     11  C   UNL     1      97.620  98.229 122.412  0.00  0.00    +0.000 A 
ATOM     12  C   UNL     1      96.598  97.643 123.155  0.00  0.00    +0.000 A 
ATOM     13  C   UNL     1      96.821  96.525 123.941  0.00  0.00    +0.000 A 
ATOM     14  C   UNL     1      99.123  96.540 123.260  0.00  0.00    +0.000 A 
ATOM     15  C   UNL     1      98.089  95.975 123.990  0.00  0.00    +0.000 A 
ATOM     16  C   UNL     1      98.882  97.660 122.478  0.00  0.00    +0.000 A 
ENDBRANCH   9  11
BRANCH   8  17
ATOM     17  C   UNL     1      96.083  98.107 119.652  0.00  0.00    +0.000 C 
ATOM     18  C   UNL     1      97.057  97.077 119.045  0.00  0.00    +0.000 C 
ENDBRANCH   8  17
ENDBRANCH   2   9
BRANCH   6  19
ATOM     19  C   UNL     1      96.653 103.716 125.391  0.00  0.00    +0.000 C 
BRANCH  19  20
ATOM     20  C   UNL     1      97.132 103.493 126.822  0.00  0.00    +0.000 C 
BRANCH  20  23
ATOM     21  C   UNL     1      94.846 102.495 127.192  0.00  0.00    +0.000 A 
ATOM     22  C   UNL     1      93.803 102.601 129.332  0.00  0.00    +0.000 A 
ATOM     23  C   UNL     1      95.935 103.170 127.719  0.00  0.00    +0.000 A 
ATOM     24  C   UNL     1      93.774 102.209 128.011  0.00  0.00    +0.000 A 
ATOM     25  C   UNL     1      94.878 103.272 129.860  0.00  0.00    +0.000 A 
ATOM     26  C   UNL     1      95.955 103.560 129.044  0.00  0.00    +0.000 A 
ENDBRANCH  20  23
ENDBRANCH  19  20
ENDBRANCH   6  19
TORSDOF 6
