REMARK minimizedAffinity -7.15685987
REMARK minimizedRMSD -1
REMARK  Name = 04_docking/output/fentanyl.pdb
REMARK  7 active torsions:
REMARK  status: ('A' for Active; 'I' for Inactive)
REMARK    1  A    between atoms: C_2  and  C_16
REMARK    2  A    between atoms: C_2  and  C_17
REMARK    3  A    between atoms: C_5  and  N_23
REMARK    4  A    between atoms: C_9  and  C_10
REMARK    5  A    between atoms: C_10  and  C_11
REMARK    6  A    between atoms: C_12  and  N_23
REMARK    7  A    between atoms: C_16  and  N_24
REMARK                            x       y       z     vdW  Elec       q    Type
REMARK                         _______ _______ _______ _____ _____    ______ ____
ROOT
ATOM      1  C   UNL     1     102.626 106.382 125.390  0.00  0.00    +0.000 C 
ATOM      2  C   UNL     1     102.296 104.978 127.501  0.00  0.00    +0.000 C 
ATOM      3  C   UNL     1     103.021 103.840 126.759  0.00  0.00    +0.000 C 
ATOM      4  C   UNL     1     102.933 103.982 125.238  0.00  0.00    +0.000 C 
ATOM      5  C   UNL     1     102.671 106.349 126.919  0.00  0.00    +0.000 C 
ATOM      6  N   UNL     1     103.450 105.304 124.824  0.00  0.00    +0.000 N 
ATOM      7  H   UNL     1     104.398 105.388 125.192  0.00  0.00    +0.000 HD
ENDROOT
BRANCH   2   9
ATOM      8  C   UNL     1     101.296 104.894 129.803  0.00  0.00    +0.000 C 
ATOM      9  N   UNL     1     102.468 104.896 128.975  0.00  0.00    +0.000 N 
ATOM     10  O   UNL     1     100.277 104.334 129.446  0.00  0.00    +0.000 OA
BRANCH   9  11
ATOM     11  C   UNL     1     103.828 104.796 129.580  0.00  0.00    +0.000 A 
ATOM     12  C   UNL     1     104.637 105.916 129.407  0.00  0.00    +0.000 A 
ATOM     13  C   UNL     1     105.925 105.967 129.914  0.00  0.00    +0.000 A 
ATOM     14  C   UNL     1     105.637 103.752 130.792  0.00  0.00    +0.000 A 
ATOM     15  C   UNL     1     106.422 104.879 130.608  0.00  0.00    +0.000 A 
ATOM     16  C   UNL     1     104.348 103.718 130.278  0.00  0.00    +0.000 A 
ENDBRANCH   9  11
BRANCH   8  17
ATOM     17  C   UNL     1     101.217 105.577 131.181  0.00  0.00    +0.000 C 
ATOM     18  C   UNL     1     101.136 104.519 132.298  0.00  0.00    +0.000 C 
ENDBRANCH   8  17
ENDBRANCH   2   9
BRANCH   6  19
ATOM     19  C   UNL     1     103.535 105.428 123.359  0.00  0.00    +0.000 C 
BRANCH  19  20
ATOM     20  C   UNL     1     104.805 104.801 122.792  0.00  0.00    +0.000 C 
BRANCH  20  23
ATOM     21  C   UNL     1     106.346 104.513 124.768  0.00  0.00    +0.000 A 
ATOM     22  C   UNL     1     108.160 106.015 125.126  0.00  0.00    +0.000 A 
ATOM     23  C   UNL     1     106.009 105.232 123.633  0.00  0.00    +0.000 A 
ATOM     24  C   UNL     1     107.433 104.911 125.517  0.00  0.00    +0.000 A 
ATOM     25  C   UNL     1     107.832 106.733 124.003  0.00  0.00    +0.000 A 
ATOM     26  C   UNL     1     106.743 106.338 123.250  0.00  0.00    +0.000 A 
ENDBRANCH  20  23
ENDBRANCH  19  20
ENDBRANCH   6  19
TORSDOF 6
