REMARK minimizedAffinity -6.94602537
REMARK minimizedRMSD -1
REMARK  Name = 04_docking/output/fentanyl.pdb
REMARK  7 active torsions:
REMARK  status: ('A' for Active; 'I' for Inactive)
REMARK    1  A    between atoms: C_2  and  C_16
REMARK    2  A    between atoms: C_2  and  C_17
REMARK    3  A    between atoms: C_5  and  N_23
REMARK    4  A    between atoms: C_9  and  C_10
REMARK    5  A    between atoms: C_10  and  C_11
REMARK    6  A    between atoms: C_12  and  N_23
REMARK    7  A    between atoms: C_16  and  N_24
REMARK                            x       y       z     vdW  Elec       q    Type
REMARK                         _______ _______ _______ _____ _____    ______ ____
ROOT
ATOM      1  C   UNL     1      99.574 105.375 128.406  0.00  0.00    +0.000 C 
ATOM      2  C   UNL     1     101.620 104.304 129.504  0.00  0.00    +0.000 C 
ATOM      3  C   UNL     1     102.283 104.340 128.115  0.00  0.00    +0.000 C 
ATOM      4  C   UNL     1     101.260 104.377 126.978  0.00  0.00    +0.000 C 
ATOM      5  C   UNL     1     100.509 105.357 129.617  0.00  0.00    +0.000 C 
ATOM      6  N   UNL     1     100.343 105.522 127.161  0.00  0.00    +0.000 N 
ATOM      7  H   UNL     1     100.916 106.363 127.228  0.00  0.00    +0.000 HD
ENDROOT
BRANCH   2   9
ATOM      8  C   UNL     1     102.144 104.219 131.958  0.00  0.00    +0.000 C 
ATOM      9  N   UNL     1     102.611 104.370 130.609  0.00  0.00    +0.000 N 
ATOM     10  O   UNL     1     101.236 103.456 132.226  0.00  0.00    +0.000 OA
BRANCH   9  11
ATOM     11  C   UNL     1     104.062 104.567 130.322  0.00  0.00    +0.000 A 
ATOM     12  C   UNL     1     104.839 103.413 130.388  0.00  0.00    +0.000 A 
ATOM     13  C   UNL     1     106.202 103.442 130.146  0.00  0.00    +0.000 A 
ATOM     14  C   UNL     1     106.057 105.806 129.760  0.00  0.00    +0.000 A 
ATOM     15  C   UNL     1     106.809 104.644 129.831  0.00  0.00    +0.000 A 
ATOM     16  C   UNL     1     104.692 105.760 130.006  0.00  0.00    +0.000 A 
ENDBRANCH   9  11
BRANCH   8  17
ATOM     17  C   UNL     1     102.732 104.982 133.160  0.00  0.00    +0.000 C 
ATOM     18  C   UNL     1     101.706 105.996 133.703  0.00  0.00    +0.000 C 
ENDBRANCH   8  17
ENDBRANCH   2   9
BRANCH   6  19
ATOM     19  C   UNL     1      99.441 105.697 126.010  0.00  0.00    +0.000 C 
BRANCH  19  20
ATOM     20  C   UNL     1      99.240 107.163 125.641  0.00  0.00    +0.000 C 
BRANCH  20  23
ATOM     21  C   UNL     1      97.185 108.530 125.124  0.00  0.00    +0.000 A 
ATOM     22  C   UNL     1      95.444 107.643 123.760  0.00  0.00    +0.000 A 
ATOM     23  C   UNL     1      97.878 107.341 124.968  0.00  0.00    +0.000 A 
ATOM     24  C   UNL     1      95.958 108.678 124.511  0.00  0.00    +0.000 A 
ATOM     25  C   UNL     1      96.124 106.461 123.603  0.00  0.00    +0.000 A 
ATOM     26  C   UNL     1      97.354 106.308 124.215  0.00  0.00    +0.000 A 
ENDBRANCH  20  23
ENDBRANCH  19  20
ENDBRANCH   6  19
TORSDOF 6
