REMARK minimizedAffinity -7.97708511
REMARK minimizedRMSD -1
REMARK  Name = 04_docking/output/fentanyl.pdb
REMARK  7 active torsions:
REMARK  status: ('A' for Active; 'I' for Inactive)
REMARK    1  A    between atoms: C_2  and  C_16
REMARK    2  A    between atoms: C_2  and  C_17
REMARK    3  A    between atoms: C_5  and  N_23
REMARK    4  A    between atoms: C_9  and  C_10
REMARK    5  A    between atoms: C_10  and  C_11
REMARK    6  A    between atoms: C_12  and  N_23
REMARK    7  A    between atoms: C_16  and  N_24
REMARK                            x       y       z     vdW  Elec       q    Type
REMARK                         _______ _______ _______ _____ _____    ______ ____
ROOT
ATOM      1  C   UNL     1     102.472 106.419 126.336  0.00  0.00    +0.000 C 
ATOM      2  C   UNL     1     103.146 105.062 128.396  0.00  0.00    +0.000 C 
ATOM      3  C   UNL     1     103.972 104.180 127.444  0.00  0.00    +0.000 C 
ATOM      4  C   UNL     1     103.459 104.230 126.004  0.00  0.00    +0.000 C 
ATOM      5  C   UNL     1     102.914 106.459 127.800  0.00  0.00    +0.000 C 
ATOM      6  N   UNL     1     103.417 105.630 125.532  0.00  0.00    +0.000 N 
ATOM      7  H   UNL     1     104.353 106.019 125.650  0.00  0.00    +0.000 HD
ENDROOT
BRANCH   2   9
ATOM      8  C   UNL     1     105.116 105.297 129.936  0.00  0.00    +0.000 C 
ATOM      9  N   UNL     1     103.704 105.094 129.773  0.00  0.00    +0.000 N 
ATOM     10  O   UNL     1     105.733 106.035 129.192  0.00  0.00    +0.000 OA
BRANCH   9  11
ATOM     11  C   UNL     1     102.814 104.943 130.961  0.00  0.00    +0.000 A 
ATOM     12  C   UNL     1     102.528 106.125 131.640  0.00  0.00    +0.000 A 
ATOM     13  C   UNL     1     101.716 106.138 132.762  0.00  0.00    +0.000 A 
ATOM     14  C   UNL     1     101.445 103.762 132.561  0.00  0.00    +0.000 A 
ATOM     15  C   UNL     1     101.174 104.951 133.220  0.00  0.00    +0.000 A 
ATOM     16  C   UNL     1     102.261 103.766 131.439  0.00  0.00    +0.000 A 
ENDBRANCH   9  11
BRANCH   8  17
ATOM     17  C   UNL     1     105.958 104.623 131.035  0.00  0.00    +0.000 C 
ATOM     18  C   UNL     1     106.356 103.197 130.604  0.00  0.00    +0.000 C 
ENDBRANCH   8  17
ENDBRANCH   2   9
BRANCH   6  19
ATOM     19  C   UNL     1     103.082 105.719 124.100  0.00  0.00    +0.000 C 
BRANCH  19  20
ATOM     20  C   UNL     1     103.745 104.620 123.275  0.00  0.00    +0.000 C 
BRANCH  20  23
ATOM     21  C   UNL     1     105.990 105.768 123.314  0.00  0.00    +0.000 A 
ATOM     22  C   UNL     1     107.179 106.186 121.291  0.00  0.00    +0.000 A 
ATOM     23  C   UNL     1     104.980 105.183 122.568  0.00  0.00    +0.000 A 
ATOM     24  C   UNL     1     107.098 106.271 122.665  0.00  0.00    +0.000 A 
ATOM     25  C   UNL     1     106.181 105.609 120.546  0.00  0.00    +0.000 A 
ATOM     26  C   UNL     1     105.068 105.104 121.192  0.00  0.00    +0.000 A 
ENDBRANCH  20  23
ENDBRANCH  19  20
ENDBRANCH   6  19
TORSDOF 6
