REMARK minimizedAffinity -6.59620428
REMARK minimizedRMSD -1
REMARK  Name = 04_docking/output/fentanyl.pdb
REMARK  7 active torsions:
REMARK  status: ('A' for Active; 'I' for Inactive)
REMARK    1  A    between atoms: C_2  and  C_16
REMARK    2  A    between atoms: C_2  and  C_17
REMARK    3  A    between atoms: C_5  and  N_23
REMARK    4  A    between atoms: C_9  and  C_10
REMARK    5  A    between atoms: C_10  and  C_11
REMARK    6  A    between atoms: C_12  and  N_23
REMARK    7  A    between atoms: C_16  and  N_24
REMARK                            x       y       z     vdW  Elec       q    Type
REMARK                         _______ _______ _______ _____ _____    ______ ____
ROOT
ATOM      1  C   UNL     1      99.923 104.736 128.017  0.00  0.00    +0.000 C 
ATOM      2  C   UNL     1     101.794 103.869 129.529  0.00  0.00    +0.000 C 
ATOM      3  C   UNL     1     102.470 103.339 128.252  0.00  0.00    +0.000 C 
ATOM      4  C   UNL     1     101.474 103.106 127.114  0.00  0.00    +0.000 C 
ATOM      5  C   UNL     1     100.834 105.025 129.212  0.00  0.00    +0.000 C 
ATOM      6  N   UNL     1     100.718 104.347 126.843  0.00  0.00    +0.000 N 
ATOM      7  H   UNL     1     101.399 105.082 126.650  0.00  0.00    +0.000 HD
ENDROOT
BRANCH   2   9
ATOM      8  C   UNL     1     102.324 104.188 131.963  0.00  0.00    +0.000 C 
ATOM      9  N   UNL     1     102.773 104.192 130.599  0.00  0.00    +0.000 N 
ATOM     10  O   UNL     1     101.498 103.384 132.349  0.00  0.00    +0.000 OA
BRANCH   9  11
ATOM     11  C   UNL     1     104.196 104.491 130.266  0.00  0.00    +0.000 A 
ATOM     12  C   UNL     1     105.095 103.461 130.534  0.00  0.00    +0.000 A 
ATOM     13  C   UNL     1     106.449 103.594 130.276  0.00  0.00    +0.000 A 
ATOM     14  C   UNL     1     106.048 105.818 129.467  0.00  0.00    +0.000 A 
ATOM     15  C   UNL     1     106.922 104.778 129.741  0.00  0.00    +0.000 A 
ATOM     16  C   UNL     1     104.694 105.668 129.731  0.00  0.00    +0.000 A 
ENDBRANCH   9  11
BRANCH   8  17
ATOM     17  C   UNL     1     102.831 105.170 133.035  0.00  0.00    +0.000 C 
ATOM     18  C   UNL     1     101.648 105.932 133.665  0.00  0.00    +0.000 C 
ENDBRANCH   8  17
ENDBRANCH   2   9
BRANCH   6  19
ATOM     19  C   UNL     1      99.860 104.221 125.652  0.00  0.00    +0.000 C 
BRANCH  19  20
ATOM     20  C   UNL     1      98.455 103.734 125.993  0.00  0.00    +0.000 C 
BRANCH  20  23
ATOM     21  C   UNL     1      98.946 102.119 124.119  0.00  0.00    +0.000 A 
ATOM     22  C   UNL     1      97.576 100.200 123.775  0.00  0.00    +0.000 A 
ATOM     23  C   UNL     1      98.144 102.466 125.194  0.00  0.00    +0.000 A 
ATOM     24  C   UNL     1      98.656 100.973 123.408  0.00  0.00    +0.000 A 
ATOM     25  C   UNL     1      96.776 100.539 124.839  0.00  0.00    +0.000 A 
ATOM     26  C   UNL     1      97.063 101.686 125.555  0.00  0.00    +0.000 A 
ENDBRANCH  20  23
ENDBRANCH  19  20
ENDBRANCH   6  19
TORSDOF 6
