REMARK minimizedAffinity -7.71081114
REMARK minimizedRMSD -1
REMARK  Name = 04_docking/output/fentanyl.pdb
REMARK  7 active torsions:
REMARK  status: ('A' for Active; 'I' for Inactive)
REMARK    1  A    between atoms: C_2  and  C_16
REMARK    2  A    between atoms: C_2  and  C_17
REMARK    3  A    between atoms: C_5  and  N_23
REMARK    4  A    between atoms: C_9  and  C_10
REMARK    5  A    between atoms: C_10  and  C_11
REMARK    6  A    between atoms: C_12  and  N_23
REMARK    7  A    between atoms: C_16  and  N_24
REMARK                            x       y       z     vdW  Elec       q    Type
REMARK                         _______ _______ _______ _____ _____    ______ ____
ROOT
ATOM      1  C   UNL     1     102.767 106.062 126.368  0.00  0.00    +0.000 C 
ATOM      2  C   UNL     1     103.051 104.928 128.643  0.00  0.00    +0.000 C 
ATOM      3  C   UNL     1     103.635 103.726 127.879  0.00  0.00    +0.000 C 
ATOM      4  C   UNL     1     103.167 103.672 126.424  0.00  0.00    +0.000 C 
ATOM      5  C   UNL     1     103.189 106.224 127.830  0.00  0.00    +0.000 C 
ATOM      6  N   UNL     1     103.488 104.944 125.743  0.00  0.00    +0.000 N 
ATOM      7  H   UNL     1     104.491 105.101 125.847  0.00  0.00    +0.000 HD
ENDROOT
BRANCH   2   9
ATOM      8  C   UNL     1     104.990 105.268 130.201  0.00  0.00    +0.000 C 
ATOM      9  N   UNL     1     103.584 105.039 130.025  0.00  0.00    +0.000 N 
ATOM     10  O   UNL     1     105.612 105.974 129.431  0.00  0.00    +0.000 OA
BRANCH   9  11
ATOM     11  C   UNL     1     102.675 104.938 131.204  0.00  0.00    +0.000 A 
ATOM     12  C   UNL     1     102.431 106.138 131.867  0.00  0.00    +0.000 A 
ATOM     13  C   UNL     1     101.608 106.198 132.979  0.00  0.00    +0.000 A 
ATOM     14  C   UNL     1     101.240 103.833 132.801  0.00  0.00    +0.000 A 
ATOM     15  C   UNL     1     101.012 105.040 133.443  0.00  0.00    +0.000 A 
ATOM     16  C   UNL     1     102.068 103.790 131.688  0.00  0.00    +0.000 A 
ENDBRANCH   9  11
BRANCH   8  17
ATOM     17  C   UNL     1     105.821 104.663 131.348  0.00  0.00    +0.000 C 
ATOM     18  C   UNL     1     106.220 103.213 131.012  0.00  0.00    +0.000 C 
ENDBRANCH   8  17
ENDBRANCH   2   9
BRANCH   6  19
ATOM     19  C   UNL     1     103.202 104.884 124.299  0.00  0.00    +0.000 C 
BRANCH  19  20
ATOM     20  C   UNL     1     104.348 104.267 123.502  0.00  0.00    +0.000 C 
BRANCH  20  23
ATOM     21  C   UNL     1     106.150 106.001 123.173  0.00  0.00    +0.000 A 
ATOM     22  C   UNL     1     108.027 106.098 124.637  0.00  0.00    +0.000 A 
ATOM     23  C   UNL     1     105.668 104.928 123.905  0.00  0.00    +0.000 A 
ATOM     24  C   UNL     1     107.340 106.589 123.548  0.00  0.00    +0.000 A 
ATOM     25  C   UNL     1     107.556 105.034 125.366  0.00  0.00    +0.000 A 
ATOM     26  C   UNL     1     106.364 104.442 124.995  0.00  0.00    +0.000 A 
ENDBRANCH  20  23
ENDBRANCH  19  20
ENDBRANCH   6  19
TORSDOF 6
