REMARK minimizedAffinity -6.59846783
REMARK minimizedRMSD -1
REMARK  Name = 04_docking/output/fentanyl.pdb
REMARK  7 active torsions:
REMARK  status: ('A' for Active; 'I' for Inactive)
REMARK    1  A    between atoms: C_2  and  C_16
REMARK    2  A    between atoms: C_2  and  C_17
REMARK    3  A    between atoms: C_5  and  N_23
REMARK    4  A    between atoms: C_9  and  C_10
REMARK    5  A    between atoms: C_10  and  C_11
REMARK    6  A    between atoms: C_12  and  N_23
REMARK    7  A    between atoms: C_16  and  N_24
REMARK                            x       y       z     vdW  Elec       q    Type
REMARK                         _______ _______ _______ _____ _____    ______ ____
ROOT
ATOM      1  C   UNL     1     100.131 104.535 127.225  0.00  0.00    +0.000 C 
ATOM      2  C   UNL     1     101.855 104.245 129.092  0.00  0.00    +0.000 C 
ATOM      3  C   UNL     1     102.643 103.354 128.114  0.00  0.00    +0.000 C 
ATOM      4  C   UNL     1     101.754 102.744 127.029  0.00  0.00    +0.000 C 
ATOM      5  C   UNL     1     100.930 105.213 128.339  0.00  0.00    +0.000 C 
ATOM      6  N   UNL     1     101.029 103.813 126.311  0.00  0.00    +0.000 N 
ATOM      7  H   UNL     1     101.727 104.466 125.953  0.00  0.00    +0.000 HD
ENDROOT
BRANCH   2   9
ATOM      8  C   UNL     1     104.065 105.276 129.688  0.00  0.00    +0.000 C 
ATOM      9  N   UNL     1     102.733 104.918 130.083  0.00  0.00    +0.000 N 
ATOM     10  O   UNL     1     104.304 105.656 128.559  0.00  0.00    +0.000 OA
BRANCH   9  11
ATOM     11  C   UNL     1     102.232 105.238 131.452  0.00  0.00    +0.000 A 
ATOM     12  C   UNL     1     101.490 104.229 132.061  0.00  0.00    +0.000 A 
ATOM     13  C   UNL     1     100.961 104.383 133.331  0.00  0.00    +0.000 A 
ATOM     14  C   UNL     1     101.908 106.586 133.429  0.00  0.00    +0.000 A 
ATOM     15  C   UNL     1     101.173 105.567 134.014  0.00  0.00    +0.000 A 
ATOM     16  C   UNL     1     102.431 106.415 132.155  0.00  0.00    +0.000 A 
ENDBRANCH   9  11
BRANCH   8  17
ATOM     17  C   UNL     1     105.284 105.216 130.628  0.00  0.00    +0.000 C 
ATOM     18  C   UNL     1     105.900 103.803 130.616  0.00  0.00    +0.000 C 
ENDBRANCH   8  17
ENDBRANCH   2   9
BRANCH   6  19
ATOM     19  C   UNL     1     100.283 103.292 125.153  0.00  0.00    +0.000 C 
BRANCH  19  20
ATOM     20  C   UNL     1     100.809 103.833 123.826  0.00  0.00    +0.000 C 
BRANCH  20  23
ATOM     21  C   UNL     1     101.381 101.891 122.322  0.00  0.00    +0.000 A 
ATOM     22  C   UNL     1     103.617 101.079 122.178  0.00  0.00    +0.000 A 
ATOM     23  C   UNL     1     101.813 102.843 123.231  0.00  0.00    +0.000 A 
ATOM     24  C   UNL     1     102.296 101.005 121.792  0.00  0.00    +0.000 A 
ATOM     25  C   UNL     1     104.051 102.019 123.080  0.00  0.00    +0.000 A 
ATOM     26  C   UNL     1     103.138 102.909 123.613  0.00  0.00    +0.000 A 
ENDBRANCH  20  23
ENDBRANCH  19  20
ENDBRANCH   6  19
TORSDOF 6
