REMARK minimizedAffinity -6.54754448
REMARK minimizedRMSD -1
REMARK  Name = 04_docking/output/fentanyl.pdb
REMARK  7 active torsions:
REMARK  status: ('A' for Active; 'I' for Inactive)
REMARK    1  A    between atoms: C_2  and  C_16
REMARK    2  A    between atoms: C_2  and  C_17
REMARK    3  A    between atoms: C_5  and  N_23
REMARK    4  A    between atoms: C_9  and  C_10
REMARK    5  A    between atoms: C_10  and  C_11
REMARK    6  A    between atoms: C_12  and  N_23
REMARK    7  A    between atoms: C_16  and  N_24
REMARK                            x       y       z     vdW  Elec       q    Type
REMARK                         _______ _______ _______ _____ _____    ______ ____
ROOT
ATOM      1  C   UNL     1      99.946 104.501 127.938  0.00  0.00    +0.000 C 
ATOM      2  C   UNL     1     101.876 103.737 129.433  0.00  0.00    +0.000 C 
ATOM      3  C   UNL     1     102.555 103.219 128.153  0.00  0.00    +0.000 C 
ATOM      4  C   UNL     1     101.553 102.926 127.034  0.00  0.00    +0.000 C 
ATOM      5  C   UNL     1     100.861 104.845 129.115  0.00  0.00    +0.000 C 
ATOM      6  N   UNL     1     100.740 104.130 126.757  0.00  0.00    +0.000 N 
ATOM      7  H   UNL     1     101.386 104.890 126.544  0.00  0.00    +0.000 HD
ENDROOT
BRANCH   2   9
ATOM      8  C   UNL     1     102.412 104.166 131.848  0.00  0.00    +0.000 C 
ATOM      9  N   UNL     1     102.855 104.117 130.484  0.00  0.00    +0.000 N 
ATOM     10  O   UNL     1     101.598 103.369 132.272  0.00  0.00    +0.000 OA
BRANCH   9  11
ATOM     11  C   UNL     1     104.273 104.419 130.131  0.00  0.00    +0.000 A 
ATOM     12  C   UNL     1     105.191 103.429 130.474  0.00  0.00    +0.000 A 
ATOM     13  C   UNL     1     106.543 103.570 130.208  0.00  0.00    +0.000 A 
ATOM     14  C   UNL     1     106.100 105.721 129.240  0.00  0.00    +0.000 A 
ATOM     15  C   UNL     1     106.994 104.721 129.589  0.00  0.00    +0.000 A 
ATOM     16  C   UNL     1     104.749 105.564 129.513  0.00  0.00    +0.000 A 
ENDBRANCH   9  11
BRANCH   8  17
ATOM     17  C   UNL     1     102.911 105.199 132.876  0.00  0.00    +0.000 C 
ATOM     18  C   UNL     1     101.723 105.989 133.460  0.00  0.00    +0.000 C 
ENDBRANCH   8  17
ENDBRANCH   2   9
BRANCH   6  19
ATOM     19  C   UNL     1      99.871 103.950 125.581  0.00  0.00    +0.000 C 
BRANCH  19  20
ATOM     20  C   UNL     1     100.448 104.594 124.324  0.00  0.00    +0.000 C 
BRANCH  20  23
ATOM     21  C   UNL     1     102.201 106.403 124.458  0.00  0.00    +0.000 A 
ATOM     22  C   UNL     1     101.634 108.596 125.198  0.00  0.00    +0.000 A 
ATOM     23  C   UNL     1     100.879 106.029 124.636  0.00  0.00    +0.000 A 
ATOM     24  C   UNL     1     102.576 107.699 124.741  0.00  0.00    +0.000 A 
ATOM     25  C   UNL     1     100.322 108.232 125.378  0.00  0.00    +0.000 A 
ATOM     26  C   UNL     1      99.942 106.934 125.095  0.00  0.00    +0.000 A 
ENDBRANCH  20  23
ENDBRANCH  19  20
ENDBRANCH   6  19
TORSDOF 6
