MODEL 1
REMARK minimizedAffinity -7.85410929
REMARK minimizedRMSD -1
REMARK  Name = 04_docking/output/fentanyl.pdb
REMARK  7 active torsions:
REMARK  status: ('A' for Active; 'I' for Inactive)
REMARK    1  A    between atoms: C_2  and  C_16
REMARK    2  A    between atoms: C_2  and  C_17
REMARK    3  A    between atoms: C_5  and  N_23
REMARK    4  A    between atoms: C_9  and  C_10
REMARK    5  A    between atoms: C_10  and  C_11
REMARK    6  A    between atoms: C_12  and  N_23
REMARK    7  A    between atoms: C_16  and  N_24
REMARK                            x       y       z     vdW  Elec       q    Type
REMARK                         _______ _______ _______ _____ _____    ______ ____
ROOT
ATOM      1  C   UNL     1     100.992 103.371 126.147  0.00  0.00    +0.000 C 
ATOM      2  C   UNL     1     101.984 104.594 128.162  0.00  0.00    +0.000 C 
ATOM      3  C   UNL     1     100.538 104.786 128.654  0.00  0.00    +0.000 C 
ATOM      4  C   UNL     1      99.518 104.724 127.516  0.00  0.00    +0.000 C 
ATOM      5  C   UNL     1     102.093 103.394 127.210  0.00  0.00    +0.000 C 
ATOM      6  N   UNL     1      99.666 103.453 126.775  0.00  0.00    +0.000 N 
ATOM      7  H   UNL     1      99.575 102.694 127.451  0.00  0.00    +0.000 HD
ENDROOT
BRANCH   2   9
ATOM      8  C   UNL     1     104.361 104.451 128.960  0.00  0.00    +0.000 C 
ATOM      9  N   UNL     1     102.965 104.553 129.278  0.00  0.00    +0.000 N 
ATOM     10  O   UNL     1     104.825 105.012 127.986  0.00  0.00    +0.000 OA
BRANCH   9  11
ATOM     11  C   UNL     1     102.511 104.638 130.696  0.00  0.00    +0.000 A 
ATOM     12  C   UNL     1     102.524 105.918 131.246  0.00  0.00    +0.000 A 
ATOM     13  C   UNL     1     102.129 106.150 132.552  0.00  0.00    +0.000 A 
ATOM     14  C   UNL     1     101.690 103.805 132.809  0.00  0.00    +0.000 A 
ATOM     15  C   UNL     1     101.712 105.088 133.332  0.00  0.00    +0.000 A 
ATOM     16  C   UNL     1     102.089 103.589 131.497  0.00  0.00    +0.000 A 
ENDBRANCH   9  11
BRANCH   8  17
ATOM     17  C   UNL     1     105.375 103.649 129.796  0.00  0.00    +0.000 C 
ATOM     18  C   UNL     1     106.125 104.584 130.767  0.00  0.00    +0.000 C 
ENDBRANCH   8  17
ENDBRANCH   2   9
BRANCH   6  19
ATOM     19  C   UNL     1      98.603 103.274 125.771  0.00  0.00    +0.000 C 
BRANCH  19  20
ATOM     20  C   UNL     1      97.801 101.994 125.990  0.00  0.00    +0.000 C 
BRANCH  20  23
ATOM     21  C   UNL     1      95.339 102.541 125.956  0.00  0.00    +0.000 A 
ATOM     22  C   UNL     1      94.148 102.924 127.983  0.00  0.00    +0.000 A 
ATOM     23  C   UNL     1      96.487 102.327 126.701  0.00  0.00    +0.000 A 
ATOM     24  C   UNL     1      94.161 102.839 126.608  0.00  0.00    +0.000 A 
ATOM     25  C   UNL     1      95.283 102.715 128.728  0.00  0.00    +0.000 A 
ATOM     26  C   UNL     1      96.465 102.415 128.079  0.00  0.00    +0.000 A 
ENDBRANCH  20  23
ENDBRANCH  19  20
ENDBRANCH   6  19
TORSDOF 6
ENDMDL
MODEL 2
REMARK minimizedAffinity -7.6399231
REMARK minimizedRMSD -1
REMARK  Name = 04_docking/output/fentanyl.pdb
REMARK  7 active torsions:
REMARK  status: ('A' for Active; 'I' for Inactive)
REMARK    1  A    between atoms: C_2  and  C_16
REMARK    2  A    between atoms: C_2  and  C_17
REMARK    3  A    between atoms: C_5  and  N_23
REMARK    4  A    between atoms: C_9  and  C_10
REMARK    5  A    between atoms: C_10  and  C_11
REMARK    6  A    between atoms: C_12  and  N_23
REMARK    7  A    between atoms: C_16  and  N_24
REMARK                            x       y       z     vdW  Elec       q    Type
REMARK                         _______ _______ _______ _____ _____    ______ ____
ROOT
ATOM      1  C   UNL     1     102.732 104.801 130.102  0.00  0.00    +0.000 C 
ATOM      2  C   UNL     1     100.700 104.442 128.590  0.00  0.00    +0.000 C 
ATOM      3  C   UNL     1      99.914 105.327 129.573  0.00  0.00    +0.000 C 
ATOM      4  C   UNL     1     100.535 105.345 130.971  0.00  0.00    +0.000 C 
ATOM      5  C   UNL     1     102.207 104.729 128.666  0.00  0.00    +0.000 C 
ATOM      6  N   UNL     1     101.950 105.765 130.890  0.00  0.00    +0.000 N 
ATOM      7  H   UNL     1     101.972 106.669 130.418  0.00  0.00    +0.000 HD
ENDROOT
BRANCH   2   9
ATOM      8  C   UNL     1     100.662 105.512 126.318  0.00  0.00    +0.000 C 
ATOM      9  N   UNL     1     100.158 104.505 127.208  0.00  0.00    +0.000 N 
ATOM     10  O   UNL     1     101.830 105.848 126.349  0.00  0.00    +0.000 OA
BRANCH   9  11
ATOM     11  C   UNL     1      99.129 103.527 126.747  0.00  0.00    +0.000 A 
ATOM     12  C   UNL     1      97.931 103.550 127.459  0.00  0.00    +0.000 A 
ATOM     13  C   UNL     1      96.885 102.699 127.145  0.00  0.00    +0.000 A 
ATOM     14  C   UNL     1      98.212 101.762 125.378  0.00  0.00    +0.000 A 
ATOM     15  C   UNL     1      97.031 101.804 126.100  0.00  0.00    +0.000 A 
ATOM     16  C   UNL     1      99.252 102.622 125.706  0.00  0.00    +0.000 A 
ENDBRANCH   9  11
BRANCH   8  17
ATOM     17  C   UNL     1      99.800 106.240 125.270  0.00  0.00    +0.000 C 
ATOM     18  C   UNL     1      99.473 107.669 125.747  0.00  0.00    +0.000 C 
ENDBRANCH   8  17
ENDBRANCH   2   9
BRANCH   6  19
ATOM     19  C   UNL     1     102.547 105.953 132.223  0.00  0.00    +0.000 C 
BRANCH  19  20
ATOM     20  C   UNL     1     101.507 105.928 133.339  0.00  0.00    +0.000 C 
BRANCH  20  23
ATOM     21  C   UNL     1     101.578 108.449 133.320  0.00  0.00    +0.000 A 
ATOM     22  C   UNL     1     101.470 109.686 135.354  0.00  0.00    +0.000 A 
ATOM     23  C   UNL     1     101.493 107.279 134.057  0.00  0.00    +0.000 A 
ATOM     24  C   UNL     1     101.563 109.660 133.979  0.00  0.00    +0.000 A 
ATOM     25  C   UNL     1     101.387 108.530 136.091  0.00  0.00    +0.000 A 
ATOM     26  C   UNL     1     101.400 107.314 135.435  0.00  0.00    +0.000 A 
ENDBRANCH  20  23
ENDBRANCH  19  20
ENDBRANCH   6  19
TORSDOF 6
ENDMDL
MODEL 3
REMARK minimizedAffinity -7.50258493
REMARK minimizedRMSD -1
REMARK  Name = 04_docking/output/fentanyl.pdb
REMARK  7 active torsions:
REMARK  status: ('A' for Active; 'I' for Inactive)
REMARK    1  A    between atoms: C_2  and  C_16
REMARK    2  A    between atoms: C_2  and  C_17
REMARK    3  A    between atoms: C_5  and  N_23
REMARK    4  A    between atoms: C_9  and  C_10
REMARK    5  A    between atoms: C_10  and  C_11
REMARK    6  A    between atoms: C_12  and  N_23
REMARK    7  A    between atoms: C_16  and  N_24
REMARK                            x       y       z     vdW  Elec       q    Type
REMARK                         _______ _______ _______ _____ _____    ______ ____
ROOT
ATOM      1  C   UNL     1     104.784 106.386 128.310  0.00  0.00    +0.000 C 
ATOM      2  C   UNL     1     105.279 105.154 126.124  0.00  0.00    +0.000 C 
ATOM      3  C   UNL     1     105.858 104.020 126.990  0.00  0.00    +0.000 C 
ATOM      4  C   UNL     1     106.315 104.507 128.366  0.00  0.00    +0.000 C 
ATOM      5  C   UNL     1     104.275 106.003 126.919  0.00  0.00    +0.000 C 
ATOM      6  N   UNL     1     105.200 105.189 129.056  0.00  0.00    +0.000 N 
ATOM      7  H   UNL     1     104.418 104.535 129.090  0.00  0.00    +0.000 HD
ENDROOT
BRANCH   2   9
ATOM      8  C   UNL     1     103.743 103.634 124.846  0.00  0.00    +0.000 C 
ATOM      9  N   UNL     1     104.742 104.664 124.829  0.00  0.00    +0.000 N 
ATOM     10  O   UNL     1     102.896 103.595 125.717  0.00  0.00    +0.000 OA
BRANCH   9  11
ATOM     11  C   UNL     1     105.212 105.248 123.538  0.00  0.00    +0.000 A 
ATOM     12  C   UNL     1     106.586 105.457 123.450  0.00  0.00    +0.000 A 
ATOM     13  C   UNL     1     107.167 105.993 122.313  0.00  0.00    +0.000 A 
ATOM     14  C   UNL     1     104.995 106.132 121.302  0.00  0.00    +0.000 A 
ATOM     15  C   UNL     1     106.364 106.329 121.238  0.00  0.00    +0.000 A 
ATOM     16  C   UNL     1     104.428 105.594 122.449  0.00  0.00    +0.000 A 
ENDBRANCH   9  11
BRANCH   8  17
ATOM     17  C   UNL     1     103.650 102.512 123.795  0.00  0.00    +0.000 C 
ATOM     18  C   UNL     1     104.837 101.540 123.942  0.00  0.00    +0.000 C 
ENDBRANCH   8  17
ENDBRANCH   2   9
BRANCH   6  19
ATOM     19  C   UNL     1     105.541 105.535 130.447  0.00  0.00    +0.000 C 
BRANCH  19  20
ATOM     20  C   UNL     1     105.137 104.446 131.436  0.00  0.00    +0.000 C 
BRANCH  20  23
ATOM     21  C   UNL     1     103.372 106.071 132.214  0.00  0.00    +0.000 A 
ATOM     22  C   UNL     1     101.265 105.292 133.007  0.00  0.00    +0.000 A 
ATOM     23  C   UNL     1     103.748 104.755 131.999  0.00  0.00    +0.000 A 
ATOM     24  C   UNL     1     102.117 106.337 132.720  0.00  0.00    +0.000 A 
ATOM     25  C   UNL     1     101.631 103.986 132.799  0.00  0.00    +0.000 A 
ATOM     26  C   UNL     1     102.888 103.715 132.291  0.00  0.00    +0.000 A 
ENDBRANCH  20  23
ENDBRANCH  19  20
ENDBRANCH   6  19
TORSDOF 6
ENDMDL
MODEL 4
REMARK minimizedAffinity -7.49971676
REMARK minimizedRMSD -1
REMARK  Name = 04_docking/output/fentanyl.pdb
REMARK  7 active torsions:
REMARK  status: ('A' for Active; 'I' for Inactive)
REMARK    1  A    between atoms: C_2  and  C_16
REMARK    2  A    between atoms: C_2  and  C_17
REMARK    3  A    between atoms: C_5  and  N_23
REMARK    4  A    between atoms: C_9  and  C_10
REMARK    5  A    between atoms: C_10  and  C_11
REMARK    6  A    between atoms: C_12  and  N_23
REMARK    7  A    between atoms: C_16  and  N_24
REMARK                            x       y       z     vdW  Elec       q    Type
REMARK                         _______ _______ _______ _____ _____    ______ ____
ROOT
ATOM      1  C   UNL     1     102.701 105.459 128.887  0.00  0.00    +0.000 C 
ATOM      2  C   UNL     1     104.220 104.123 127.322  0.00  0.00    +0.000 C 
ATOM      3  C   UNL     1     103.640 102.855 127.975  0.00  0.00    +0.000 C 
ATOM      4  C   UNL     1     103.090 103.116 129.378  0.00  0.00    +0.000 C 
ATOM      5  C   UNL     1     103.260 105.313 127.471  0.00  0.00    +0.000 C 
ATOM      6  N   UNL     1     102.085 104.200 129.332  0.00  0.00    +0.000 N 
ATOM      7  H   UNL     1     101.373 103.926 128.654  0.00  0.00    +0.000 HD
ENDROOT
BRANCH   2   9
ATOM      8  C   UNL     1     103.925 102.963 125.115  0.00  0.00    +0.000 C 
ATOM      9  N   UNL     1     104.662 103.893 125.922  0.00  0.00    +0.000 N 
ATOM     10  O   UNL     1     102.717 102.862 125.218  0.00  0.00    +0.000 OA
BRANCH   9  11
ATOM     11  C   UNL     1     105.831 104.630 125.361  0.00  0.00    +0.000 A 
ATOM     12  C   UNL     1     106.908 104.783 126.232  0.00  0.00    +0.000 A 
ATOM     13  C   UNL     1     108.062 105.445 125.849  0.00  0.00    +0.000 A 
ATOM     14  C   UNL     1     107.092 105.830 123.688  0.00  0.00    +0.000 A 
ATOM     15  C   UNL     1     108.150 105.968 124.572  0.00  0.00    +0.000 A 
ATOM     16  C   UNL     1     105.942 105.163 124.087  0.00  0.00    +0.000 A 
ENDBRANCH   9  11
BRANCH   8  17
ATOM     17  C   UNL     1     104.570 102.034 124.070  0.00  0.00    +0.000 C 
ATOM     18  C   UNL     1     103.797 102.107 122.739  0.00  0.00    +0.000 C 
ENDBRANCH   8  17
ENDBRANCH   2   9
BRANCH   6  19
ATOM     19  C   UNL     1     101.409 104.380 130.628  0.00  0.00    +0.000 C 
BRANCH  19  20
ATOM     20  C   UNL     1     102.377 104.321 131.806  0.00  0.00    +0.000 C 
BRANCH  20  23
ATOM     21  C   UNL     1     101.333 105.589 133.720  0.00  0.00    +0.000 A 
ATOM     22  C   UNL     1     101.959 107.842 134.174  0.00  0.00    +0.000 A 
ATOM     23  C   UNL     1     102.224 105.582 132.659  0.00  0.00    +0.000 A 
ATOM     24  C   UNL     1     101.205 106.731 134.482  0.00  0.00    +0.000 A 
ATOM     25  C   UNL     1     102.843 107.843 133.123  0.00  0.00    +0.000 A 
ATOM     26  C   UNL     1     102.975 106.701 132.357  0.00  0.00    +0.000 A 
ENDBRANCH  20  23
ENDBRANCH  19  20
ENDBRANCH   6  19
TORSDOF 6
ENDMDL
MODEL 5
REMARK minimizedAffinity -7.41922283
REMARK minimizedRMSD -1
REMARK  Name = 04_docking/output/fentanyl.pdb
REMARK  7 active torsions:
REMARK  status: ('A' for Active; 'I' for Inactive)
REMARK    1  A    between atoms: C_2  and  C_16
REMARK    2  A    between atoms: C_2  and  C_17
REMARK    3  A    between atoms: C_5  and  N_23
REMARK    4  A    between atoms: C_9  and  C_10
REMARK    5  A    between atoms: C_10  and  C_11
REMARK    6  A    between atoms: C_12  and  N_23
REMARK    7  A    between atoms: C_16  and  N_24
REMARK                            x       y       z     vdW  Elec       q    Type
REMARK                         _______ _______ _______ _____ _____    ______ ____
ROOT
ATOM      1  C   UNL     1     103.270 105.848 131.234  0.00  0.00    +0.000 C 
ATOM      2  C   UNL     1     103.827 104.967 128.898  0.00  0.00    +0.000 C 
ATOM      3  C   UNL     1     102.315 104.750 128.709  0.00  0.00    +0.000 C 
ATOM      4  C   UNL     1     101.573 104.597 130.038  0.00  0.00    +0.000 C 
ATOM      5  C   UNL     1     104.106 106.035 129.966  0.00  0.00    +0.000 C 
ATOM      6  N   UNL     1     101.840 105.765 130.903  0.00  0.00    +0.000 N 
ATOM      7  H   UNL     1     101.576 106.599 130.378  0.00  0.00    +0.000 HD
ENDROOT
BRANCH   2   9
ATOM      8  C   UNL     1     105.942 104.957 127.544  0.00  0.00    +0.000 C 
ATOM      9  N   UNL     1     104.532 105.218 127.615  0.00  0.00    +0.000 N 
ATOM     10  O   UNL     1     106.437 104.022 128.144  0.00  0.00    +0.000 OA
BRANCH   9  11
ATOM     11  C   UNL     1     103.787 105.709 126.419  0.00  0.00    +0.000 A 
ATOM     12  C   UNL     1     103.722 104.813 125.354  0.00  0.00    +0.000 A 
ATOM     13  C   UNL     1     103.063 105.130 124.178  0.00  0.00    +0.000 A 
ATOM     14  C   UNL     1     102.508 107.275 125.100  0.00  0.00    +0.000 A 
ATOM     15  C   UNL     1     102.456 106.366 124.055  0.00  0.00    +0.000 A 
ATOM     16  C   UNL     1     103.172 106.941 126.272  0.00  0.00    +0.000 A 
ENDBRANCH   9  11
BRANCH   8  17
ATOM     17  C   UNL     1     106.932 105.806 126.726  0.00  0.00    +0.000 C 
ATOM     18  C   UNL     1     107.488 104.988 125.543  0.00  0.00    +0.000 C 
ENDBRANCH   8  17
ENDBRANCH   2   9
BRANCH   6  19
ATOM     19  C   UNL     1     101.023 105.743 132.128  0.00  0.00    +0.000 C 
BRANCH  19  20
ATOM     20  C   UNL     1     101.866 105.853 133.395  0.00  0.00    +0.000 C 
BRANCH  20  23
ATOM     21  C   UNL     1     101.444 107.288 135.426  0.00  0.00    +0.000 A 
ATOM     22  C   UNL     1     101.191 109.648 135.218  0.00  0.00    +0.000 A 
ATOM     23  C   UNL     1     101.624 107.213 134.055  0.00  0.00    +0.000 A 
ATOM     24  C   UNL     1     101.228 108.519 136.008  0.00  0.00    +0.000 A 
ATOM     25  C   UNL     1     101.368 109.581 133.858  0.00  0.00    +0.000 A 
ATOM     26  C   UNL     1     101.585 108.349 133.270  0.00  0.00    +0.000 A 
ENDBRANCH  20  23
ENDBRANCH  19  20
ENDBRANCH   6  19
TORSDOF 6
ENDMDL
MODEL 6
REMARK minimizedAffinity -7.38320541
REMARK minimizedRMSD -1
REMARK  Name = 04_docking/output/fentanyl.pdb
REMARK  7 active torsions:
REMARK  status: ('A' for Active; 'I' for Inactive)
REMARK    1  A    between atoms: C_2  and  C_16
REMARK    2  A    between atoms: C_2  and  C_17
REMARK    3  A    between atoms: C_5  and  N_23
REMARK    4  A    between atoms: C_9  and  C_10
REMARK    5  A    between atoms: C_10  and  C_11
REMARK    6  A    between atoms: C_12  and  N_23
REMARK    7  A    between atoms: C_16  and  N_24
REMARK                            x       y       z     vdW  Elec       q    Type
REMARK                         _______ _______ _______ _____ _____    ______ ____
ROOT
ATOM      1  C   UNL     1     104.122 104.320 126.908  0.00  0.00    +0.000 C 
ATOM      2  C   UNL     1     103.244 104.876 124.571  0.00  0.00    +0.000 C 
ATOM      3  C   UNL     1     101.922 104.215 125.000  0.00  0.00    +0.000 C 
ATOM      4  C   UNL     1     102.110 103.209 126.137  0.00  0.00    +0.000 C 
ATOM      5  C   UNL     1     104.044 105.361 125.790  0.00  0.00    +0.000 C 
ATOM      6  N   UNL     1     102.777 103.862 127.283  0.00  0.00    +0.000 N 
ATOM      7  H   UNL     1     102.214 104.673 127.540  0.00  0.00    +0.000 HD
ENDROOT
BRANCH   2   9
ATOM      8  C   UNL     1     102.128 106.993 123.812  0.00  0.00    +0.000 C 
ATOM      9  N   UNL     1     103.048 105.927 123.539  0.00  0.00    +0.000 N 
ATOM     10  O   UNL     1     102.012 107.450 124.933  0.00  0.00    +0.000 OA
BRANCH   9  11
ATOM     11  C   UNL     1     103.809 105.886 122.256  0.00  0.00    +0.000 A 
ATOM     12  C   UNL     1     105.155 106.232 122.355  0.00  0.00    +0.000 A 
ATOM     13  C   UNL     1     105.985 106.239 121.247  0.00  0.00    +0.000 A 
ATOM     14  C   UNL     1     104.132 105.550 119.887  0.00  0.00    +0.000 A 
ATOM     15  C   UNL     1     105.467 105.897 120.011  0.00  0.00    +0.000 A 
ATOM     16  C   UNL     1     103.313 105.548 121.007  0.00  0.00    +0.000 A 
ENDBRANCH   9  11
BRANCH   8  17
ATOM     17  C   UNL     1     101.227 107.644 122.746  0.00  0.00    +0.000 C 
ATOM     18  C   UNL     1      99.838 106.976 122.738  0.00  0.00    +0.000 C 
ENDBRANCH   8  17
ENDBRANCH   2   9
BRANCH   6  19
ATOM     19  C   UNL     1     102.837 102.980 128.462  0.00  0.00    +0.000 C 
BRANCH  19  20
ATOM     20  C   UNL     1     103.657 103.580 129.600  0.00  0.00    +0.000 C 
BRANCH  20  23
ATOM     21  C   UNL     1     102.945 103.488 132.018  0.00  0.00    +0.000 A 
ATOM     22  C   UNL     1     101.053 104.720 132.777  0.00  0.00    +0.000 A 
ATOM     23  C   UNL     1     102.726 103.986 130.744  0.00  0.00    +0.000 A 
ATOM     24  C   UNL     1     102.099 103.862 133.040  0.00  0.00    +0.000 A 
ATOM     25  C   UNL     1     100.828 105.217 131.517  0.00  0.00    +0.000 A 
ATOM     26  C   UNL     1     101.674 104.844 130.489  0.00  0.00    +0.000 A 
ENDBRANCH  20  23
ENDBRANCH  19  20
ENDBRANCH   6  19
TORSDOF 6
ENDMDL
MODEL 7
REMARK minimizedAffinity -7.38213825
REMARK minimizedRMSD -1
REMARK  Name = 04_docking/output/fentanyl.pdb
REMARK  7 active torsions:
REMARK  status: ('A' for Active; 'I' for Inactive)
REMARK    1  A    between atoms: C_2  and  C_16
REMARK    2  A    between atoms: C_2  and  C_17
REMARK    3  A    between atoms: C_5  and  N_23
REMARK    4  A    between atoms: C_9  and  C_10
REMARK    5  A    between atoms: C_10  and  C_11
REMARK    6  A    between atoms: C_12  and  N_23
REMARK    7  A    between atoms: C_16  and  N_24
REMARK                            x       y       z     vdW  Elec       q    Type
REMARK                         _______ _______ _______ _____ _____    ______ ____
ROOT
ATOM      1  C   UNL     1     103.307 102.902 126.736  0.00  0.00    +0.000 C 
ATOM      2  C   UNL     1     102.131 104.644 128.193  0.00  0.00    +0.000 C 
ATOM      3  C   UNL     1     101.977 105.489 126.916  0.00  0.00    +0.000 C 
ATOM      4  C   UNL     1     103.021 105.142 125.853  0.00  0.00    +0.000 C 
ATOM      5  C   UNL     1     102.297 103.154 127.857  0.00  0.00    +0.000 C 
ATOM      6  N   UNL     1     102.968 103.697 125.546  0.00  0.00    +0.000 N 
ATOM      7  H   UNL     1     102.010 103.480 125.269  0.00  0.00    +0.000 HD
ENDROOT
BRANCH   2   9
ATOM      8  C   UNL     1      99.697 104.960 128.725  0.00  0.00    +0.000 C 
ATOM      9  N   UNL     1     101.056 104.908 129.184  0.00  0.00    +0.000 N 
ATOM     10  O   UNL     1      99.307 104.227 127.836  0.00  0.00    +0.000 OA
BRANCH   9  11
ATOM     11  C   UNL     1     101.379 105.091 130.629  0.00  0.00    +0.000 A 
ATOM     12  C   UNL     1     102.480 105.903 130.891  0.00  0.00    +0.000 A 
ATOM     13  C   UNL     1     102.899 106.164 132.184  0.00  0.00    +0.000 A 
ATOM     14  C   UNL     1     101.110 104.793 133.010  0.00  0.00    +0.000 A 
ATOM     15  C   UNL     1     102.209 105.605 133.245  0.00  0.00    +0.000 A 
ATOM     16  C   UNL     1     100.704 104.542 131.707  0.00  0.00    +0.000 A 
ENDBRANCH   9  11
BRANCH   8  17
ATOM     17  C   UNL     1      98.634 105.916 129.297  0.00  0.00    +0.000 C 
ATOM     18  C   UNL     1      97.331 105.149 129.597  0.00  0.00    +0.000 C 
ENDBRANCH   8  17
ENDBRANCH   2   9
BRANCH   6  19
ATOM     19  C   UNL     1     103.843 103.341 124.416  0.00  0.00    +0.000 C 
BRANCH  19  20
ATOM     20  C   UNL     1     105.204 102.824 124.870  0.00  0.00    +0.000 C 
BRANCH  20  23
ATOM     21  C   UNL     1     107.059 104.126 125.978  0.00  0.00    +0.000 A 
ATOM     22  C   UNL     1     107.997 106.045 124.923  0.00  0.00    +0.000 A 
ATOM     23  C   UNL     1     106.209 103.978 124.893  0.00  0.00    +0.000 A 
ATOM     24  C   UNL     1     107.960 105.170 125.986  0.00  0.00    +0.000 A 
ATOM     25  C   UNL     1     107.157 105.905 123.845  0.00  0.00    +0.000 A 
ATOM     26  C   UNL     1     106.252 104.861 123.832  0.00  0.00    +0.000 A 
ENDBRANCH  20  23
ENDBRANCH  19  20
ENDBRANCH   6  19
TORSDOF 6
ENDMDL
MODEL 8
REMARK minimizedAffinity -7.37416983
REMARK minimizedRMSD -1
REMARK  Name = 04_docking/output/fentanyl.pdb
REMARK  7 active torsions:
REMARK  status: ('A' for Active; 'I' for Inactive)
REMARK    1  A    between atoms: C_2  and  C_16
REMARK    2  A    between atoms: C_2  and  C_17
REMARK    3  A    between atoms: C_5  and  N_23
REMARK    4  A    between atoms: C_9  and  C_10
REMARK    5  A    between atoms: C_10  and  C_11
REMARK    6  A    between atoms: C_12  and  N_23
REMARK    7  A    between atoms: C_16  and  N_24
REMARK                            x       y       z     vdW  Elec       q    Type
REMARK                         _______ _______ _______ _____ _____    ______ ____
ROOT
ATOM      1  C   UNL     1     102.211 103.720 127.460  0.00  0.00    +0.000 C 
ATOM      2  C   UNL     1     103.993 104.201 125.689  0.00  0.00    +0.000 C 
ATOM      3  C   UNL     1     105.039 103.890 126.775  0.00  0.00    +0.000 C 
ATOM      4  C   UNL     1     104.493 104.091 128.190  0.00  0.00    +0.000 C 
ATOM      5  C   UNL     1     102.647 103.531 126.005  0.00  0.00    +0.000 C 
ATOM      6  N   UNL     1     103.271 103.280 128.379  0.00  0.00    +0.000 N 
ATOM      7  H   UNL     1     103.512 102.313 128.163  0.00  0.00    +0.000 HD
ENDROOT
BRANCH   2   9
ATOM      8  C   UNL     1     105.155 104.953 123.594  0.00  0.00    +0.000 C 
ATOM      9  N   UNL     1     104.489 103.909 124.319  0.00  0.00    +0.000 N 
ATOM     10  O   UNL     1     105.874 105.751 124.162  0.00  0.00    +0.000 OA
BRANCH   9  11
ATOM     11  C   UNL     1     104.320 102.553 123.720  0.00  0.00    +0.000 A 
ATOM     12  C   UNL     1     105.233 101.595 124.156  0.00  0.00    +0.000 A 
ATOM     13  C   UNL     1     105.199 100.293 123.687  0.00  0.00    +0.000 A 
ATOM     14  C   UNL     1     103.317 100.867 122.312  0.00  0.00    +0.000 A 
ATOM     15  C   UNL     1     104.236  99.932 122.762  0.00  0.00    +0.000 A 
ATOM     16  C   UNL     1     103.365 102.168 122.793  0.00  0.00    +0.000 A 
ENDBRANCH   9  11
BRANCH   8  17
ATOM     17  C   UNL     1     105.028 105.156 122.072  0.00  0.00    +0.000 C 
ATOM     18  C   UNL     1     106.170 106.054 121.556  0.00  0.00    +0.000 C 
ENDBRANCH   8  17
ENDBRANCH   2   9
BRANCH   6  19
ATOM     19  C   UNL     1     102.798 103.314 129.773  0.00  0.00    +0.000 C 
BRANCH  19  20
ATOM     20  C   UNL     1     103.751 104.067 130.696  0.00  0.00    +0.000 C 
BRANCH  20  23
ATOM     21  C   UNL     1     101.923 104.224 132.428  0.00  0.00    +0.000 A 
ATOM     22  C   UNL     1     101.514 106.267 133.584  0.00  0.00    +0.000 A 
ATOM     23  C   UNL     1     102.945 104.852 131.734  0.00  0.00    +0.000 A 
ATOM     24  C   UNL     1     101.205 104.942 133.361  0.00  0.00    +0.000 A 
ATOM     25  C   UNL     1     102.525 106.896 132.900  0.00  0.00    +0.000 A 
ATOM     26  C   UNL     1     103.247 106.180 131.964  0.00  0.00    +0.000 A 
ENDBRANCH  20  23
ENDBRANCH  19  20
ENDBRANCH   6  19
TORSDOF 6
ENDMDL
MODEL 9
REMARK minimizedAffinity -7.2532258
REMARK minimizedRMSD -1
REMARK  Name = 04_docking/output/fentanyl.pdb
REMARK  7 active torsions:
REMARK  status: ('A' for Active; 'I' for Inactive)
REMARK    1  A    between atoms: C_2  and  C_16
REMARK    2  A    between atoms: C_2  and  C_17
REMARK    3  A    between atoms: C_5  and  N_23
REMARK    4  A    between atoms: C_9  and  C_10
REMARK    5  A    between atoms: C_10  and  C_11
REMARK    6  A    between atoms: C_12  and  N_23
REMARK    7  A    between atoms: C_16  and  N_24
REMARK                            x       y       z     vdW  Elec       q    Type
REMARK                         _______ _______ _______ _____ _____    ______ ____
ROOT
ATOM      1  C   UNL     1      99.197 104.843 128.642  0.00  0.00    +0.000 C 
ATOM      2  C   UNL     1     101.265 104.505 130.108  0.00  0.00    +0.000 C 
ATOM      3  C   UNL     1     101.997 104.057 128.830  0.00  0.00    +0.000 C 
ATOM      4  C   UNL     1     101.038 103.538 127.756  0.00  0.00    +0.000 C 
ATOM      5  C   UNL     1     100.062 105.400 129.775  0.00  0.00    +0.000 C 
ATOM      6  N   UNL     1     100.017 104.564 127.454  0.00  0.00    +0.000 N 
ATOM      7  H   UNL     1     100.511 105.416 127.189  0.00  0.00    +0.000 HD
ENDROOT
BRANCH   2   9
ATOM      8  C   UNL     1     101.640 105.540 132.365  0.00  0.00    +0.000 C 
ATOM      9  N   UNL     1     102.184 105.103 131.111  0.00  0.00    +0.000 N 
ATOM     10  O   UNL     1     100.736 104.931 132.903  0.00  0.00    +0.000 OA
BRANCH   9  11
ATOM     11  C   UNL     1     103.645 105.224 130.830  0.00  0.00    +0.000 A 
ATOM     12  C   UNL     1     104.441 104.232 131.399  0.00  0.00    +0.000 A 
ATOM     13  C   UNL     1     105.814 104.215 131.225  0.00  0.00    +0.000 A 
ATOM     14  C   UNL     1     105.642 106.203 129.892  0.00  0.00    +0.000 A 
ATOM     15  C   UNL     1     106.412 105.206 130.468  0.00  0.00    +0.000 A 
ATOM     16  C   UNL     1     104.267 106.206 130.076  0.00  0.00    +0.000 A 
ENDBRANCH   9  11
BRANCH   8  17
ATOM     17  C   UNL     1     102.134 106.784 133.127  0.00  0.00    +0.000 C 
ATOM     18  C   UNL     1     101.364 106.938 134.454  0.00  0.00    +0.000 C 
ENDBRANCH   8  17
ENDBRANCH   2   9
BRANCH   6  19
ATOM     19  C   UNL     1      99.167 104.177 126.315  0.00  0.00    +0.000 C 
BRANCH  19  20
ATOM     20  C   UNL     1      98.623 102.757 126.446  0.00  0.00    +0.000 C 
BRANCH  20  23
ATOM     21  C   UNL     1      96.546 102.771 127.876  0.00  0.00    +0.000 A 
ATOM     22  C   UNL     1      94.384 102.886 126.881  0.00  0.00    +0.000 A 
ATOM     23  C   UNL     1      97.102 102.804 126.608  0.00  0.00    +0.000 A 
ATOM     24  C   UNL     1      95.174 102.815 128.008  0.00  0.00    +0.000 A 
ATOM     25  C   UNL     1      94.928 102.918 125.621  0.00  0.00    +0.000 A 
ATOM     26  C   UNL     1      96.303 102.875 125.484  0.00  0.00    +0.000 A 
ENDBRANCH  20  23
ENDBRANCH  19  20
ENDBRANCH   6  19
TORSDOF 6
ENDMDL
MODEL 10
REMARK minimizedAffinity -7.24041319
REMARK minimizedRMSD -1
REMARK  Name = 04_docking/output/fentanyl.pdb
REMARK  7 active torsions:
REMARK  status: ('A' for Active; 'I' for Inactive)
REMARK    1  A    between atoms: C_2  and  C_16
REMARK    2  A    between atoms: C_2  and  C_17
REMARK    3  A    between atoms: C_5  and  N_23
REMARK    4  A    between atoms: C_9  and  C_10
REMARK    5  A    between atoms: C_10  and  C_11
REMARK    6  A    between atoms: C_12  and  N_23
REMARK    7  A    between atoms: C_16  and  N_24
REMARK                            x       y       z     vdW  Elec       q    Type
REMARK                         _______ _______ _______ _____ _____    ______ ____
ROOT
ATOM      1  C   UNL     1     100.679 103.096 126.513  0.00  0.00    +0.000 C 
ATOM      2  C   UNL     1     101.811 104.511 128.318  0.00  0.00    +0.000 C 
ATOM      3  C   UNL     1     100.397 104.849 128.824  0.00  0.00    +0.000 C 
ATOM      4  C   UNL     1      99.332 104.699 127.736  0.00  0.00    +0.000 C 
ATOM      5  C   UNL     1     101.819 103.193 127.529  0.00  0.00    +0.000 C 
ATOM      6  N   UNL     1      99.383 103.336 127.165  0.00  0.00    +0.000 N 
ATOM      7  H   UNL     1      99.278 102.678 127.938  0.00  0.00    +0.000 HD
ENDROOT
BRANCH   2   9
ATOM      8  C   UNL     1     104.215 104.460 129.039  0.00  0.00    +0.000 C 
ATOM      9  N   UNL     1     102.829 104.558 129.398  0.00  0.00    +0.000 N 
ATOM     10  O   UNL     1     104.635 104.964 128.015  0.00  0.00    +0.000 OA
BRANCH   9  11
ATOM     11  C   UNL     1     102.422 104.728 130.824  0.00  0.00    +0.000 A 
ATOM     12  C   UNL     1     102.572 106.016 131.333  0.00  0.00    +0.000 A 
ATOM     13  C   UNL     1     102.234 106.323 132.640  0.00  0.00    +0.000 A 
ATOM     14  C   UNL     1     101.580 104.039 132.979  0.00  0.00    +0.000 A 
ATOM     15  C   UNL     1     101.737 105.328 133.462  0.00  0.00    +0.000 A 
ATOM     16  C   UNL     1     101.923 103.748 131.666  0.00  0.00    +0.000 A 
ENDBRANCH   9  11
BRANCH   8  17
ATOM     17  C   UNL     1     105.273 103.731 129.889  0.00  0.00    +0.000 C 
ATOM     18  C   UNL     1     106.143 104.751 130.650  0.00  0.00    +0.000 C 
ENDBRANCH   8  17
ENDBRANCH   2   9
BRANCH   6  19
ATOM     19  C   UNL     1      98.275 103.089 126.226  0.00  0.00    +0.000 C 
BRANCH  19  20
ATOM     20  C   UNL     1      96.979 102.711 126.938  0.00  0.00    +0.000 C 
BRANCH  20  23
ATOM     21  C   UNL     1      96.082 101.630 124.843  0.00  0.00    +0.000 A 
ATOM     22  C   UNL     1      93.884 102.121 124.065  0.00  0.00    +0.000 A 
ATOM     23  C   UNL     1      95.871 102.495 125.905  0.00  0.00    +0.000 A 
ATOM     24  C   UNL     1      95.075 101.443 123.919  0.00  0.00    +0.000 A 
ATOM     25  C   UNL     1      93.669 102.981 125.114  0.00  0.00    +0.000 A 
ATOM     26  C   UNL     1      94.675 103.171 126.042  0.00  0.00    +0.000 A 
ENDBRANCH  20  23
ENDBRANCH  19  20
ENDBRANCH   6  19
TORSDOF 6
ENDMDL
MODEL 11
REMARK minimizedAffinity -7.20994186
REMARK minimizedRMSD -1
REMARK  Name = 04_docking/output/fentanyl.pdb
REMARK  7 active torsions:
REMARK  status: ('A' for Active; 'I' for Inactive)
REMARK    1  A    between atoms: C_2  and  C_16
REMARK    2  A    between atoms: C_2  and  C_17
REMARK    3  A    between atoms: C_5  and  N_23
REMARK    4  A    between atoms: C_9  and  C_10
REMARK    5  A    between atoms: C_10  and  C_11
REMARK    6  A    between atoms: C_12  and  N_23
REMARK    7  A    between atoms: C_16  and  N_24
REMARK                            x       y       z     vdW  Elec       q    Type
REMARK                         _______ _______ _______ _____ _____    ______ ____
ROOT
ATOM      1  C   UNL     1     106.144 104.293 128.499  0.00  0.00    +0.000 C 
ATOM      2  C   UNL     1     104.925 104.143 126.256  0.00  0.00    +0.000 C 
ATOM      3  C   UNL     1     104.102 105.361 126.715  0.00  0.00    +0.000 C 
ATOM      4  C   UNL     1     104.057 105.498 128.238  0.00  0.00    +0.000 C 
ATOM      5  C   UNL     1     106.272 104.074 126.990  0.00  0.00    +0.000 C 
ATOM      6  N   UNL     1     105.431 105.548 128.781  0.00  0.00    +0.000 N 
ATOM      7  H   UNL     1     105.916 106.313 128.312  0.00  0.00    +0.000 HD
ENDROOT
BRANCH   2   9
ATOM      8  C   UNL     1     105.647 105.174 124.083  0.00  0.00    +0.000 C 
ATOM      9  N   UNL     1     105.054 104.067 124.778  0.00  0.00    +0.000 N 
ATOM     10  O   UNL     1     106.564 105.804 124.574  0.00  0.00    +0.000 OA
BRANCH   9  11
ATOM     11  C   UNL     1     104.599 102.856 124.034  0.00  0.00    +0.000 A 
ATOM     12  C   UNL     1     105.326 101.695 124.293  0.00  0.00    +0.000 A 
ATOM     13  C   UNL     1     105.019 100.495 123.675  0.00  0.00    +0.000 A 
ATOM     14  C   UNL     1     103.229 101.585 122.506  0.00  0.00    +0.000 A 
ATOM     15  C   UNL     1     103.966 100.444 122.780  0.00  0.00    +0.000 A 
ATOM     16  C   UNL     1     103.550 102.781 123.133  0.00  0.00    +0.000 A 
ENDBRANCH   9  11
BRANCH   8  17
ATOM     17  C   UNL     1     105.195 105.655 122.692  0.00  0.00    +0.000 C 
ATOM     18  C   UNL     1     106.420 106.010 121.825  0.00  0.00    +0.000 C 
ENDBRANCH   8  17
ENDBRANCH   2   9
BRANCH   6  19
ATOM     19  C   UNL     1     105.443 105.840 130.224  0.00  0.00    +0.000 C 
BRANCH  19  20
ATOM     20  C   UNL     1     105.119 104.614 131.072  0.00  0.00    +0.000 C 
BRANCH  20  23
ATOM     21  C   UNL     1     103.409 106.132 132.138  0.00  0.00    +0.000 A 
ATOM     22  C   UNL     1     101.452 105.233 133.159  0.00  0.00    +0.000 A 
ATOM     23  C   UNL     1     103.803 104.842 131.820  0.00  0.00    +0.000 A 
ATOM     24  C   UNL     1     102.221 106.324 132.811  0.00  0.00    +0.000 A 
ATOM     25  C   UNL     1     101.838 103.953 132.849  0.00  0.00    +0.000 A 
ATOM     26  C   UNL     1     103.027 103.755 132.173  0.00  0.00    +0.000 A 
ENDBRANCH  20  23
ENDBRANCH  19  20
ENDBRANCH   6  19
TORSDOF 6
ENDMDL
MODEL 12
REMARK minimizedAffinity -7.19095278
REMARK minimizedRMSD -1
REMARK  Name = 04_docking/output/fentanyl.pdb
REMARK  7 active torsions:
REMARK  status: ('A' for Active; 'I' for Inactive)
REMARK    1  A    between atoms: C_2  and  C_16
REMARK    2  A    between atoms: C_2  and  C_17
REMARK    3  A    between atoms: C_5  and  N_23
REMARK    4  A    between atoms: C_9  and  C_10
REMARK    5  A    between atoms: C_10  and  C_11
REMARK    6  A    between atoms: C_12  and  N_23
REMARK    7  A    between atoms: C_16  and  N_24
REMARK                            x       y       z     vdW  Elec       q    Type
REMARK                         _______ _______ _______ _____ _____    ______ ____
ROOT
ATOM      1  C   UNL     1     102.812 105.174 129.831  0.00  0.00    +0.000 C 
ATOM      2  C   UNL     1     103.777 105.938 127.589  0.00  0.00    +0.000 C 
ATOM      3  C   UNL     1     104.827 106.720 128.400  0.00  0.00    +0.000 C 
ATOM      4  C   UNL     1     104.348 107.050 129.814  0.00  0.00    +0.000 C 
ATOM      5  C   UNL     1     103.198 104.773 128.405  0.00  0.00    +0.000 C 
ATOM      6  N   UNL     1     103.947 105.811 130.514  0.00  0.00    +0.000 N 
ATOM      7  H   UNL     1     104.745 105.175 130.487  0.00  0.00    +0.000 HD
ENDROOT
BRANCH   2   9
ATOM      8  C   UNL     1     105.503 104.781 126.178  0.00  0.00    +0.000 C 
ATOM      9  N   UNL     1     104.280 105.528 126.252  0.00  0.00    +0.000 N 
ATOM     10  O   UNL     1     105.787 103.958 127.027  0.00  0.00    +0.000 OA
BRANCH   9  11
ATOM     11  C   UNL     1     103.517 105.866 125.014  0.00  0.00    +0.000 A 
ATOM     12  C   UNL     1     102.880 107.104 125.031  0.00  0.00    +0.000 A 
ATOM     13  C   UNL     1     102.136 107.552 123.953  0.00  0.00    +0.000 A 
ATOM     14  C   UNL     1     102.644 105.515 122.791  0.00  0.00    +0.000 A 
ATOM     15  C   UNL     1     102.020 106.751 122.831  0.00  0.00    +0.000 A 
ATOM     16  C   UNL     1     103.387 105.081 123.880  0.00  0.00    +0.000 A 
ENDBRANCH   9  11
BRANCH   8  17
ATOM     17  C   UNL     1     106.540 104.942 125.052  0.00  0.00    +0.000 C 
ATOM     18  C   UNL     1     107.831 105.582 125.601  0.00  0.00    +0.000 C 
ENDBRANCH   8  17
ENDBRANCH   2   9
BRANCH   6  19
ATOM     19  C   UNL     1     103.630 106.056 131.932  0.00  0.00    +0.000 C 
BRANCH  19  20
ATOM     20  C   UNL     1     102.129 106.139 132.189  0.00  0.00    +0.000 C 
BRANCH  20  23
ATOM     21  C   UNL     1     102.018 108.511 133.041  0.00  0.00    +0.000 A 
ATOM     22  C   UNL     1     101.364 108.968 135.286  0.00  0.00    +0.000 A 
ATOM     23  C   UNL     1     101.855 107.159 133.297  0.00  0.00    +0.000 A 
ATOM     24  C   UNL     1     101.767 109.420 134.048  0.00  0.00    +0.000 A 
ATOM     25  C   UNL     1     101.202 107.630 135.547  0.00  0.00    +0.000 A 
ATOM     26  C   UNL     1     101.452 106.716 134.542  0.00  0.00    +0.000 A 
ENDBRANCH  20  23
ENDBRANCH  19  20
ENDBRANCH   6  19
TORSDOF 6
ENDMDL
MODEL 13
REMARK minimizedAffinity -7.13291454
REMARK minimizedRMSD -1
REMARK  Name = 04_docking/output/fentanyl.pdb
REMARK  7 active torsions:
REMARK  status: ('A' for Active; 'I' for Inactive)
REMARK    1  A    between atoms: C_2  and  C_16
REMARK    2  A    between atoms: C_2  and  C_17
REMARK    3  A    between atoms: C_5  and  N_23
REMARK    4  A    between atoms: C_9  and  C_10
REMARK    5  A    between atoms: C_10  and  C_11
REMARK    6  A    between atoms: C_12  and  N_23
REMARK    7  A    between atoms: C_16  and  N_24
REMARK                            x       y       z     vdW  Elec       q    Type
REMARK                         _______ _______ _______ _____ _____    ______ ____
ROOT
ATOM      1  C   UNL     1     104.198 105.075 128.108  0.00  0.00    +0.000 C 
ATOM      2  C   UNL     1     102.040 104.269 126.998  0.00  0.00    +0.000 C 
ATOM      3  C   UNL     1     102.022 103.137 128.041  0.00  0.00    +0.000 C 
ATOM      4  C   UNL     1     103.413 102.835 128.603  0.00  0.00    +0.000 C 
ATOM      5  C   UNL     1     102.853 105.472 127.497  0.00  0.00    +0.000 C 
ATOM      6  N   UNL     1     104.010 104.067 129.162  0.00  0.00    +0.000 N 
ATOM      7  H   UNL     1     103.356 104.434 129.854  0.00  0.00    +0.000 HD
ENDROOT
BRANCH   2   9
ATOM      8  C   UNL     1     100.487 104.913 125.133  0.00  0.00    +0.000 C 
ATOM      9  N   UNL     1     100.678 104.631 126.527  0.00  0.00    +0.000 N 
ATOM     10  O   UNL     1     101.100 104.302 124.279  0.00  0.00    +0.000 OA
BRANCH   9  11
ATOM     11  C   UNL     1      99.530 104.678 127.479  0.00  0.00    +0.000 A 
ATOM     12  C   UNL     1      98.560 103.697 127.284  0.00  0.00    +0.000 A 
ATOM     13  C   UNL     1      97.438 103.617 128.091  0.00  0.00    +0.000 A 
ATOM     14  C   UNL     1      98.224 105.517 129.328  0.00  0.00    +0.000 A 
ATOM     15  C   UNL     1      97.273 104.532 129.115  0.00  0.00    +0.000 A 
ATOM     16  C   UNL     1      99.343 105.584 128.510  0.00  0.00    +0.000 A 
ENDBRANCH   9  11
BRANCH   8  17
ATOM     17  C   UNL     1      99.516 105.983 124.599  0.00  0.00    +0.000 C 
ATOM     18  C   UNL     1      99.920 107.378 125.117  0.00  0.00    +0.000 C 
ENDBRANCH   8  17
ENDBRANCH   2   9
BRANCH   6  19
ATOM     19  C   UNL     1     105.280 103.798 129.858  0.00  0.00    +0.000 C 
BRANCH  19  20
ATOM     20  C   UNL     1     105.306 104.375 131.270  0.00  0.00    +0.000 C 
BRANCH  20  23
ATOM     21  C   UNL     1     103.294 105.836 131.694  0.00  0.00    +0.000 A 
ATOM     22  C   UNL     1     101.313 104.930 132.660  0.00  0.00    +0.000 A 
ATOM     23  C   UNL     1     103.873 104.579 131.767  0.00  0.00    +0.000 A 
ATOM     24  C   UNL     1     102.002 106.007 132.144  0.00  0.00    +0.000 A 
ATOM     25  C   UNL     1     101.881 103.682 132.737  0.00  0.00    +0.000 A 
ATOM     26  C   UNL     1     103.176 103.506 132.287  0.00  0.00    +0.000 A 
ENDBRANCH  20  23
ENDBRANCH  19  20
ENDBRANCH   6  19
TORSDOF 6
ENDMDL
MODEL 14
REMARK minimizedAffinity -7.09402418
REMARK minimizedRMSD -1
REMARK  Name = 04_docking/output/fentanyl.pdb
REMARK  7 active torsions:
REMARK  status: ('A' for Active; 'I' for Inactive)
REMARK    1  A    between atoms: C_2  and  C_16
REMARK    2  A    between atoms: C_2  and  C_17
REMARK    3  A    between atoms: C_5  and  N_23
REMARK    4  A    between atoms: C_9  and  C_10
REMARK    5  A    between atoms: C_10  and  C_11
REMARK    6  A    between atoms: C_12  and  N_23
REMARK    7  A    between atoms: C_16  and  N_24
REMARK                            x       y       z     vdW  Elec       q    Type
REMARK                         _______ _______ _______ _____ _____    ______ ____
ROOT
ATOM      1  C   UNL     1     104.659 102.823 126.642  0.00  0.00    +0.000 C 
ATOM      2  C   UNL     1     103.285 104.044 128.421  0.00  0.00    +0.000 C 
ATOM      3  C   UNL     1     103.849 105.353 127.840  0.00  0.00    +0.000 C 
ATOM      4  C   UNL     1     105.174 105.146 127.105  0.00  0.00    +0.000 C 
ATOM      5  C   UNL     1     103.322 102.914 127.381  0.00  0.00    +0.000 C 
ATOM      6  N   UNL     1     105.012 104.122 126.051  0.00  0.00    +0.000 N 
ATOM      7  H   UNL     1     104.249 104.426 125.447  0.00  0.00    +0.000 HD
ENDROOT
BRANCH   2   9
ATOM      8  C   UNL     1     100.790 104.225 128.199  0.00  0.00    +0.000 C 
ATOM      9  N   UNL     1     101.949 104.227 129.046  0.00  0.00    +0.000 N 
ATOM     10  O   UNL     1     100.726 103.500 127.225  0.00  0.00    +0.000 OA
BRANCH   9  11
ATOM     11  C   UNL     1     101.814 104.384 130.523  0.00  0.00    +0.000 A 
ATOM     12  C   UNL     1     102.411 103.381 131.283  0.00  0.00    +0.000 A 
ATOM     13  C   UNL     1     102.367 103.395 132.666  0.00  0.00    +0.000 A 
ATOM     14  C   UNL     1     101.111 105.438 132.579  0.00  0.00    +0.000 A 
ATOM     15  C   UNL     1     101.714 104.429 133.312  0.00  0.00    +0.000 A 
ATOM     16  C   UNL     1     101.165 105.410 131.192  0.00  0.00    +0.000 A 
ENDBRANCH   9  11
BRANCH   8  17
ATOM     17  C   UNL     1      99.553 105.111 128.436  0.00  0.00    +0.000 C 
ATOM     18  C   UNL     1      98.265 104.272 128.328  0.00  0.00    +0.000 C 
ENDBRANCH   8  17
ENDBRANCH   2   9
BRANCH   6  19
ATOM     19  C   UNL     1     106.215 104.001 125.210  0.00  0.00    +0.000 C 
BRANCH  19  20
ATOM     20  C   UNL     1     106.772 105.357 124.788  0.00  0.00    +0.000 C 
BRANCH  20  23
ATOM     21  C   UNL     1     107.309 105.837 122.370  0.00  0.00    +0.000 A 
ATOM     22  C   UNL     1     105.567 106.207 120.787  0.00  0.00    +0.000 A 
ATOM     23  C   UNL     1     106.345 105.662 123.350  0.00  0.00    +0.000 A 
ATOM     24  C   UNL     1     106.911 106.110 121.079  0.00  0.00    +0.000 A 
ATOM     25  C   UNL     1     104.607 106.036 121.753  0.00  0.00    +0.000 A 
ATOM     26  C   UNL     1     105.001 105.762 123.050  0.00  0.00    +0.000 A 
ENDBRANCH  20  23
ENDBRANCH  19  20
ENDBRANCH   6  19
TORSDOF 6
ENDMDL
MODEL 15
REMARK minimizedAffinity -7.02819777
REMARK minimizedRMSD -1
REMARK  Name = 04_docking/output/fentanyl.pdb
REMARK  7 active torsions:
REMARK  status: ('A' for Active; 'I' for Inactive)
REMARK    1  A    between atoms: C_2  and  C_16
REMARK    2  A    between atoms: C_2  and  C_17
REMARK    3  A    between atoms: C_5  and  N_23
REMARK    4  A    between atoms: C_9  and  C_10
REMARK    5  A    between atoms: C_10  and  C_11
REMARK    6  A    between atoms: C_12  and  N_23
REMARK    7  A    between atoms: C_16  and  N_24
REMARK                            x       y       z     vdW  Elec       q    Type
REMARK                         _______ _______ _______ _____ _____    ______ ____
ROOT
ATOM      1  C   UNL     1     100.443 104.884 124.367  0.00  0.00    +0.000 C 
ATOM      2  C   UNL     1     102.153 105.925 122.775  0.00  0.00    +0.000 C 
ATOM      3  C   UNL     1     102.457 106.937 123.894  0.00  0.00    +0.000 C 
ATOM      4  C   UNL     1     101.291 107.099 124.871  0.00  0.00    +0.000 C 
ATOM      5  C   UNL     1     101.552 104.631 123.344  0.00  0.00    +0.000 C 
ATOM      6  N   UNL     1     100.915 105.783 125.430  0.00  0.00    +0.000 N 
ATOM      7  H   UNL     1     101.753 105.381 125.851  0.00  0.00    +0.000 HD
ENDROOT
BRANCH   2   9
ATOM      8  C   UNL     1     103.086 105.504 120.482  0.00  0.00    +0.000 C 
ATOM      9  N   UNL     1     103.320 105.691 121.886  0.00  0.00    +0.000 N 
ATOM     10  O   UNL     1     102.208 106.117 119.905  0.00  0.00    +0.000 OA
BRANCH   9  11
ATOM     11  C   UNL     1     104.707 105.675 122.436  0.00  0.00    +0.000 A 
ATOM     12  C   UNL     1     105.665 106.305 121.644  0.00  0.00    +0.000 A 
ATOM     13  C   UNL     1     106.994 106.369 122.026  0.00  0.00    +0.000 A 
ATOM     14  C   UNL     1     106.449 105.161 124.027  0.00  0.00    +0.000 A 
ATOM     15  C   UNL     1     107.383 105.794 123.223  0.00  0.00    +0.000 A 
ATOM     16  C   UNL     1     105.120 105.106 123.629  0.00  0.00    +0.000 A 
ENDBRANCH   9  11
BRANCH   8  17
ATOM     17  C   UNL     1     103.900 104.542 119.597  0.00  0.00    +0.000 C 
ATOM     18  C   UNL     1     104.457 105.288 118.368  0.00  0.00    +0.000 C 
ENDBRANCH   8  17
ENDBRANCH   2   9
BRANCH   6  19
ATOM     19  C   UNL     1      99.905 105.904 126.496  0.00  0.00    +0.000 C 
BRANCH  19  20
ATOM     20  C   UNL     1      99.660 104.585 127.222  0.00  0.00    +0.000 C 
BRANCH  20  23
ATOM     21  C   UNL     1      99.805 105.286 129.641  0.00  0.00    +0.000 A 
ATOM     22  C   UNL     1     101.659 104.636 130.988  0.00  0.00    +0.000 A 
ATOM     23  C   UNL     1     100.373 104.606 128.576  0.00  0.00    +0.000 A 
ATOM     24  C   UNL     1     100.457 105.296 130.856  0.00  0.00    +0.000 A 
ATOM     25  C   UNL     1     102.229 103.961 129.937  0.00  0.00    +0.000 A 
ATOM     26  C   UNL     1     101.579 103.947 128.717  0.00  0.00    +0.000 A 
ENDBRANCH  20  23
ENDBRANCH  19  20
ENDBRANCH   6  19
TORSDOF 6
ENDMDL
MODEL 16
REMARK minimizedAffinity -7.00449038
REMARK minimizedRMSD -1
REMARK  Name = 04_docking/output/fentanyl.pdb
REMARK  7 active torsions:
REMARK  status: ('A' for Active; 'I' for Inactive)
REMARK    1  A    between atoms: C_2  and  C_16
REMARK    2  A    between atoms: C_2  and  C_17
REMARK    3  A    between atoms: C_5  and  N_23
REMARK    4  A    between atoms: C_9  and  C_10
REMARK    5  A    between atoms: C_10  and  C_11
REMARK    6  A    between atoms: C_12  and  N_23
REMARK    7  A    between atoms: C_16  and  N_24
REMARK                            x       y       z     vdW  Elec       q    Type
REMARK                         _______ _______ _______ _____ _____    ______ ____
ROOT
ATOM      1  C   UNL     1     105.165 106.436 128.647  0.00  0.00    +0.000 C 
ATOM      2  C   UNL     1     104.010 105.453 126.588  0.00  0.00    +0.000 C 
ATOM      3  C   UNL     1     104.050 104.097 127.314  0.00  0.00    +0.000 C 
ATOM      4  C   UNL     1     105.156 104.028 128.368  0.00  0.00    +0.000 C 
ATOM      5  C   UNL     1     104.079 106.620 127.585  0.00  0.00    +0.000 C 
ATOM      6  N   UNL     1     105.009 105.143 129.328  0.00  0.00    +0.000 N 
ATOM      7  H   UNL     1     104.066 105.088 129.715  0.00  0.00    +0.000 HD
ENDROOT
BRANCH   2   9
ATOM      8  C   UNL     1     102.997 106.441 124.513  0.00  0.00    +0.000 C 
ATOM      9  N   UNL     1     102.873 105.557 125.637  0.00  0.00    +0.000 N 
ATOM     10  O   UNL     1     104.062 106.586 123.944  0.00  0.00    +0.000 OA
BRANCH   9  11
ATOM     11  C   UNL     1     101.638 104.743 125.833  0.00  0.00    +0.000 A 
ATOM     12  C   UNL     1     100.815 105.158 126.877  0.00  0.00    +0.000 A 
ATOM     13  C   UNL     1      99.635 104.498 127.178  0.00  0.00    +0.000 A 
ATOM     14  C   UNL     1     100.065 102.967 125.380  0.00  0.00    +0.000 A 
ATOM     15  C   UNL     1      99.263 103.400 126.424  0.00  0.00    +0.000 A 
ATOM     16  C   UNL     1     101.245 103.639 125.092  0.00  0.00    +0.000 A 
ENDBRANCH   9  11
BRANCH   8  17
ATOM     17  C   UNL     1     101.831 107.263 123.935  0.00  0.00    +0.000 C 
ATOM     18  C   UNL     1     101.583 106.878 122.463  0.00  0.00    +0.000 C 
ENDBRANCH   8  17
ENDBRANCH   2   9
BRANCH   6  19
ATOM     19  C   UNL     1     105.952 105.030 130.453  0.00  0.00    +0.000 C 
BRANCH  19  20
ATOM     20  C   UNL     1     105.417 104.151 131.580  0.00  0.00    +0.000 C 
BRANCH  20  23
ATOM     21  C   UNL     1     103.692 105.908 132.129  0.00  0.00    +0.000 A 
ATOM     22  C   UNL     1     101.422 105.303 132.528  0.00  0.00    +0.000 A 
ATOM     23  C   UNL     1     103.985 104.570 131.920  0.00  0.00    +0.000 A 
ATOM     24  C   UNL     1     102.398 106.273 132.434  0.00  0.00    +0.000 A 
ATOM     25  C   UNL     1     101.705 103.975 132.323  0.00  0.00    +0.000 A 
ATOM     26  C   UNL     1     103.001 103.605 132.017  0.00  0.00    +0.000 A 
ENDBRANCH  20  23
ENDBRANCH  19  20
ENDBRANCH   6  19
TORSDOF 6
ENDMDL
MODEL 17
REMARK minimizedAffinity -7.0002141
REMARK minimizedRMSD -1
REMARK  Name = 04_docking/output/fentanyl.pdb
REMARK  7 active torsions:
REMARK  status: ('A' for Active; 'I' for Inactive)
REMARK    1  A    between atoms: C_2  and  C_16
REMARK    2  A    between atoms: C_2  and  C_17
REMARK    3  A    between atoms: C_5  and  N_23
REMARK    4  A    between atoms: C_9  and  C_10
REMARK    5  A    between atoms: C_10  and  C_11
REMARK    6  A    between atoms: C_12  and  N_23
REMARK    7  A    between atoms: C_16  and  N_24
REMARK                            x       y       z     vdW  Elec       q    Type
REMARK                         _______ _______ _______ _____ _____    ______ ____
ROOT
ATOM      1  C   UNL     1     100.926 103.488 125.917  0.00  0.00    +0.000 C 
ATOM      2  C   UNL     1     101.914 104.702 127.939  0.00  0.00    +0.000 C 
ATOM      3  C   UNL     1     100.487 104.729 128.517  0.00  0.00    +0.000 C 
ATOM      4  C   UNL     1      99.413 104.624 127.432  0.00  0.00    +0.000 C 
ATOM      5  C   UNL     1     102.079 103.566 126.919  0.00  0.00    +0.000 C 
ATOM      6  N   UNL     1      99.636 103.411 126.617  0.00  0.00    +0.000 N 
ATOM      7  H   UNL     1      99.656 102.616 127.256  0.00  0.00    +0.000 HD
ENDROOT
BRANCH   2   9
ATOM      8  C   UNL     1     102.866 103.728 130.049  0.00  0.00    +0.000 C 
ATOM      9  N   UNL     1     102.957 104.701 128.997  0.00  0.00    +0.000 N 
ATOM     10  O   UNL     1     102.460 102.603 129.829  0.00  0.00    +0.000 OA
BRANCH   9  11
ATOM     11  C   UNL     1     104.086 105.675 128.955  0.00  0.00    +0.000 A 
ATOM     12  C   UNL     1     105.243 105.212 128.333  0.00  0.00    +0.000 A 
ATOM     13  C   UNL     1     106.373 106.005 128.219  0.00  0.00    +0.000 A 
ATOM     14  C   UNL     1     105.215 107.771 129.361  0.00  0.00    +0.000 A 
ATOM     15  C   UNL     1     106.354 107.288 128.736  0.00  0.00    +0.000 A 
ATOM     16  C   UNL     1     104.092 106.963 129.466  0.00  0.00    +0.000 A 
ENDBRANCH   9  11
BRANCH   8  17
ATOM     17  C   UNL     1     103.264 104.005 131.510  0.00  0.00    +0.000 C 
ATOM     18  C   UNL     1     102.007 104.238 132.372  0.00  0.00    +0.000 C 
ENDBRANCH   8  17
ENDBRANCH   2   9
BRANCH   6  19
ATOM     19  C   UNL     1      98.538 103.179 125.663  0.00  0.00    +0.000 C 
BRANCH  19  20
ATOM     20  C   UNL     1      97.749 101.911 125.976  0.00  0.00    +0.000 C 
BRANCH  20  23
ATOM     21  C   UNL     1      96.429 102.362 128.077  0.00  0.00    +0.000 A 
ATOM     22  C   UNL     1      94.120 102.940 127.964  0.00  0.00    +0.000 A 
ATOM     23  C   UNL     1      96.450 102.281 126.694  0.00  0.00    +0.000 A 
ATOM     24  C   UNL     1      95.252 102.697 128.713  0.00  0.00    +0.000 A 
ATOM     25  C   UNL     1      94.133 102.860 126.594  0.00  0.00    +0.000 A 
ATOM     26  C   UNL     1      95.311 102.525 125.952  0.00  0.00    +0.000 A 
ENDBRANCH  20  23
ENDBRANCH  19  20
ENDBRANCH   6  19
TORSDOF 6
ENDMDL
MODEL 18
REMARK minimizedAffinity -6.94330692
REMARK minimizedRMSD -1
REMARK  Name = 04_docking/output/fentanyl.pdb
REMARK  7 active torsions:
REMARK  status: ('A' for Active; 'I' for Inactive)
REMARK    1  A    between atoms: C_2  and  C_16
REMARK    2  A    between atoms: C_2  and  C_17
REMARK    3  A    between atoms: C_5  and  N_23
REMARK    4  A    between atoms: C_9  and  C_10
REMARK    5  A    between atoms: C_10  and  C_11
REMARK    6  A    between atoms: C_12  and  N_23
REMARK    7  A    between atoms: C_16  and  N_24
REMARK                            x       y       z     vdW  Elec       q    Type
REMARK                         _______ _______ _______ _____ _____    ______ ____
ROOT
ATOM      1  C   UNL     1     100.041 106.589 122.958  0.00  0.00    +0.000 C 
ATOM      2  C   UNL     1     102.150 105.416 122.112  0.00  0.00    +0.000 C 
ATOM      3  C   UNL     1     101.235 104.252 121.692  0.00  0.00    +0.000 C 
ATOM      4  C   UNL     1      99.931 104.213 122.490  0.00  0.00    +0.000 C 
ATOM      5  C   UNL     1     101.366 106.733 122.207  0.00  0.00    +0.000 C 
ATOM      6  N   UNL     1      99.230 105.510 122.376  0.00  0.00    +0.000 N 
ATOM      7  H   UNL     1      99.100 105.698 121.381  0.00  0.00    +0.000 HD
ENDROOT
BRANCH   2   9
ATOM      8  C   UNL     1     103.220 105.499 119.842  0.00  0.00    +0.000 C 
ATOM      9  N   UNL     1     103.370 105.515 121.270  0.00  0.00    +0.000 N 
ATOM     10  O   UNL     1     102.269 106.033 119.305  0.00  0.00    +0.000 OA
BRANCH   9  11
ATOM     11  C   UNL     1     104.718 105.653 121.893  0.00  0.00    +0.000 A 
ATOM     12  C   UNL     1     104.816 105.183 123.201  0.00  0.00    +0.000 A 
ATOM     13  C   UNL     1     106.006 105.245 123.907  0.00  0.00    +0.000 A 
ATOM     14  C   UNL     1     107.053 106.261 122.001  0.00  0.00    +0.000 A 
ATOM     15  C   UNL     1     107.125 105.786 123.301  0.00  0.00    +0.000 A 
ATOM     16  C   UNL     1     105.853 106.192 121.307  0.00  0.00    +0.000 A 
ENDBRANCH   9  11
BRANCH   8  17
ATOM     17  C   UNL     1     104.220 104.828 118.882  0.00  0.00    +0.000 C 
ATOM     18  C   UNL     1     104.136 103.293 119.011  0.00  0.00    +0.000 C 
ENDBRANCH   8  17
ENDBRANCH   2   9
BRANCH   6  19
ATOM     19  C   UNL     1      97.894 105.471 122.993  0.00  0.00    +0.000 C 
BRANCH  19  20
ATOM     20  C   UNL     1      97.148 104.174 122.693  0.00  0.00    +0.000 C 
BRANCH  20  23
ATOM     21  C   UNL     1      97.007 102.986 124.914  0.00  0.00    +0.000 A 
ATOM     22  C   UNL     1      94.968 102.945 126.146  0.00  0.00    +0.000 A 
ATOM     23  C   UNL     1      96.370 103.731 123.935  0.00  0.00    +0.000 A 
ATOM     24  C   UNL     1      96.296 102.594 126.028  0.00  0.00    +0.000 A 
ATOM     25  C   UNL     1      94.330 103.683 125.179  0.00  0.00    +0.000 A 
ATOM     26  C   UNL     1      95.039 104.078 124.060  0.00  0.00    +0.000 A 
ENDBRANCH  20  23
ENDBRANCH  19  20
ENDBRANCH   6  19
TORSDOF 6
ENDMDL
MODEL 19
REMARK minimizedAffinity -6.92400503
REMARK minimizedRMSD -1
REMARK  Name = 04_docking/output/fentanyl.pdb
REMARK  7 active torsions:
REMARK  status: ('A' for Active; 'I' for Inactive)
REMARK    1  A    between atoms: C_2  and  C_16
REMARK    2  A    between atoms: C_2  and  C_17
REMARK    3  A    between atoms: C_5  and  N_23
REMARK    4  A    between atoms: C_9  and  C_10
REMARK    5  A    between atoms: C_10  and  C_11
REMARK    6  A    between atoms: C_12  and  N_23
REMARK    7  A    between atoms: C_16  and  N_24
REMARK                            x       y       z     vdW  Elec       q    Type
REMARK                         _______ _______ _______ _____ _____    ______ ____
ROOT
ATOM      1  C   UNL     1     103.239 106.754 132.522  0.00  0.00    +0.000 C 
ATOM      2  C   UNL     1     103.849 104.726 131.089  0.00  0.00    +0.000 C 
ATOM      3  C   UNL     1     102.564 104.066 131.620  0.00  0.00    +0.000 C 
ATOM      4  C   UNL     1     102.115 104.651 132.960  0.00  0.00    +0.000 C 
ATOM      5  C   UNL     1     103.764 106.257 131.173  0.00  0.00    +0.000 C 
ATOM      6  N   UNL     1     101.954 106.116 132.843  0.00  0.00    +0.000 N 
ATOM      7  H   UNL     1     101.301 106.290 132.078  0.00  0.00    +0.000 HD
ENDROOT
BRANCH   2   9
ATOM      8  C   UNL     1     105.609 103.932 129.483  0.00  0.00    +0.000 C 
ATOM      9  N   UNL     1     104.229 104.230 129.740  0.00  0.00    +0.000 N 
ATOM     10  O   UNL     1     106.318 103.451 130.345  0.00  0.00    +0.000 OA
BRANCH   9  11
ATOM     11  C   UNL     1     103.194 104.024 128.685  0.00  0.00    +0.000 A 
ATOM     12  C   UNL     1     102.961 102.695 128.337  0.00  0.00    +0.000 A 
ATOM     13  C   UNL     1     102.030 102.351 127.372  0.00  0.00    +0.000 A 
ATOM     14  C   UNL     1     101.527 104.678 127.065  0.00  0.00    +0.000 A 
ATOM     15  C   UNL     1     101.312 103.349 126.737  0.00  0.00    +0.000 A 
ATOM     16  C   UNL     1     102.465 105.006 128.035  0.00  0.00    +0.000 A 
ENDBRANCH   9  11
BRANCH   8  17
ATOM     17  C   UNL     1     106.303 104.183 128.131  0.00  0.00    +0.000 C 
ATOM     18  C   UNL     1     106.288 105.687 127.794  0.00  0.00    +0.000 C 
ENDBRANCH   8  17
ENDBRANCH   2   9
BRANCH   6  19
ATOM     19  C   UNL     1     101.370 106.706 134.060  0.00  0.00    +0.000 C 
BRANCH  19  20
ATOM     20  C   UNL     1     101.309 108.229 134.000  0.00  0.00    +0.000 C 
BRANCH  20  23
ATOM     21  C   UNL     1     102.201 107.972 136.345  0.00  0.00    +0.000 A 
ATOM     22  C   UNL     1     102.875 109.878 137.607  0.00  0.00    +0.000 A 
ATOM     23  C   UNL     1     101.872 108.816 135.296  0.00  0.00    +0.000 A 
ATOM     24  C   UNL     1     102.709 108.513 137.508  0.00  0.00    +0.000 A 
ATOM     25  C   UNL     1     102.550 110.720 136.572  0.00  0.00    +0.000 A 
ATOM     26  C   UNL     1     102.042 110.182 135.405  0.00  0.00    +0.000 A 
ENDBRANCH  20  23
ENDBRANCH  19  20
ENDBRANCH   6  19
TORSDOF 6
ENDMDL
MODEL 20
REMARK minimizedAffinity -6.86925316
REMARK minimizedRMSD -1
REMARK  Name = 04_docking/output/fentanyl.pdb
REMARK  7 active torsions:
REMARK  status: ('A' for Active; 'I' for Inactive)
REMARK    1  A    between atoms: C_2  and  C_16
REMARK    2  A    between atoms: C_2  and  C_17
REMARK    3  A    between atoms: C_5  and  N_23
REMARK    4  A    between atoms: C_9  and  C_10
REMARK    5  A    between atoms: C_10  and  C_11
REMARK    6  A    between atoms: C_12  and  N_23
REMARK    7  A    between atoms: C_16  and  N_24
REMARK                            x       y       z     vdW  Elec       q    Type
REMARK                         _______ _______ _______ _____ _____    ______ ____
ROOT
ATOM      1  C   UNL     1     104.098 103.414 128.111  0.00  0.00    +0.000 C 
ATOM      2  C   UNL     1     103.454 104.149 125.748  0.00  0.00    +0.000 C 
ATOM      3  C   UNL     1     103.764 105.588 126.199  0.00  0.00    +0.000 C 
ATOM      4  C   UNL     1     103.653 105.764 127.714  0.00  0.00    +0.000 C 
ATOM      5  C   UNL     1     104.201 103.123 126.613  0.00  0.00    +0.000 C 
ATOM      6  N   UNL     1     104.528 104.790 128.401  0.00  0.00    +0.000 N 
ATOM      7  H   UNL     1     105.472 104.922 128.039  0.00  0.00    +0.000 HD
ENDROOT
BRANCH   2   9
ATOM      8  C   UNL     1     102.851 102.984 123.607  0.00  0.00    +0.000 C 
ATOM      9  N   UNL     1     103.661 103.952 124.289  0.00  0.00    +0.000 N 
ATOM     10  O   UNL     1     101.687 102.811 123.914  0.00  0.00    +0.000 OA
BRANCH   9  11
ATOM     11  C   UNL     1     104.672 104.760 123.546  0.00  0.00    +0.000 A 
ATOM     12  C   UNL     1     104.187 105.428 122.424  0.00  0.00    +0.000 A 
ATOM     13  C   UNL     1     105.009 106.215 121.637  0.00  0.00    +0.000 A 
ATOM     14  C   UNL     1     106.852 105.689 123.081  0.00  0.00    +0.000 A 
ATOM     15  C   UNL     1     106.345 106.343 121.971  0.00  0.00    +0.000 A 
ATOM     16  C   UNL     1     106.014 104.903 123.860  0.00  0.00    +0.000 A 
ENDBRANCH   9  11
BRANCH   8  17
ATOM     17  C   UNL     1     103.360 102.100 122.453  0.00  0.00    +0.000 C 
ATOM     18  C   UNL     1     104.191 100.925 123.006  0.00  0.00    +0.000 C 
ENDBRANCH   8  17
ENDBRANCH   2   9
BRANCH   6  19
ATOM     19  C   UNL     1     104.579 105.024 129.854  0.00  0.00    +0.000 C 
BRANCH  19  20
ATOM     20  C   UNL     1     103.716 104.039 130.636  0.00  0.00    +0.000 C 
BRANCH  20  23
ATOM     21  C   UNL     1     101.934 104.126 132.420  0.00  0.00    +0.000 A 
ATOM     22  C   UNL     1     101.476 106.154 133.584  0.00  0.00    +0.000 A 
ATOM     23  C   UNL     1     102.910 104.793 131.696  0.00  0.00    +0.000 A 
ATOM     24  C   UNL     1     101.216 104.817 133.373  0.00  0.00    +0.000 A 
ATOM     25  C   UNL     1     102.440 106.821 132.870  0.00  0.00    +0.000 A 
ATOM     26  C   UNL     1     103.163 106.133 131.914  0.00  0.00    +0.000 A 
ENDBRANCH  20  23
ENDBRANCH  19  20
ENDBRANCH   6  19
TORSDOF 6
ENDMDL
