MODEL 1
REMARK minimizedAffinity -8.19659996
REMARK minimizedRMSD -1
REMARK  Name = 04_docking/output/fentanyl.pdb
REMARK  7 active torsions:
REMARK  status: ('A' for Active; 'I' for Inactive)
REMARK    1  A    between atoms: C_2  and  C_16
REMARK    2  A    between atoms: C_2  and  C_17
REMARK    3  A    between atoms: C_5  and  N_23
REMARK    4  A    between atoms: C_9  and  C_10
REMARK    5  A    between atoms: C_10  and  C_11
REMARK    6  A    between atoms: C_12  and  N_23
REMARK    7  A    between atoms: C_16  and  N_24
REMARK                            x       y       z     vdW  Elec       q    Type
REMARK                         _______ _______ _______ _____ _____    ______ ____
ROOT
ATOM      1  C   UNL     1     100.914 103.407 126.699  0.00  0.00    +0.000 C 
ATOM      2  C   UNL     1     101.871 105.068 128.392  0.00  0.00    +0.000 C 
ATOM      3  C   UNL     1     100.419 105.498 128.667  0.00  0.00    +0.000 C 
ATOM      4  C   UNL     1      99.485 105.196 127.494  0.00  0.00    +0.000 C 
ATOM      5  C   UNL     1     101.929 103.644 127.818  0.00  0.00    +0.000 C 
ATOM      6  N   UNL     1      99.559 103.761 127.146  0.00  0.00    +0.000 N 
ATOM      7  H   UNL     1      99.343 103.232 127.991  0.00  0.00    +0.000 HD
ENDROOT
BRANCH   2   9
ATOM      8  C   UNL     1     104.133 105.607 129.339  0.00  0.00    +0.000 C 
ATOM      9  N   UNL     1     102.757 105.267 129.567  0.00  0.00    +0.000 N 
ATOM     10  O   UNL     1     104.455 106.331 128.417  0.00  0.00    +0.000 OA
BRANCH   9  11
ATOM     11  C   UNL     1     102.224 105.138 130.955  0.00  0.00    +0.000 A 
ATOM     12  C   UNL     1     102.195 106.322 131.689  0.00  0.00    +0.000 A 
ATOM     13  C   UNL     1     101.726 106.356 132.992  0.00  0.00    +0.000 A 
ATOM     14  C   UNL     1     101.294 103.998 132.870  0.00  0.00    +0.000 A 
ATOM     15  C   UNL     1     101.275 105.188 133.579  0.00  0.00    +0.000 A 
ATOM     16  C   UNL     1     101.767 103.981 131.565  0.00  0.00    +0.000 A 
ENDBRANCH   9  11
BRANCH   8  17
ATOM     17  C   UNL     1     105.297 105.107 130.215  0.00  0.00    +0.000 C 
ATOM     18  C   UNL     1     105.621 103.636 129.884  0.00  0.00    +0.000 C 
ENDBRANCH   8  17
ENDBRANCH   2   9
BRANCH   6  19
ATOM     19  C   UNL     1      98.561 103.388 126.129  0.00  0.00    +0.000 C 
BRANCH  19  20
ATOM     20  C   UNL     1      97.309 104.258 126.192  0.00  0.00    +0.000 C 
BRANCH  20  23
ATOM     21  C   UNL     1      95.170 102.926 126.312  0.00  0.00    +0.000 A 
ATOM     22  C   UNL     1      94.280 102.241 128.413  0.00  0.00    +0.000 A 
ATOM     23  C   UNL     1      96.219 103.532 126.984  0.00  0.00    +0.000 A 
ATOM     24  C   UNL     1      94.196 102.274 127.038  0.00  0.00    +0.000 A 
ATOM     25  C   UNL     1      95.315 102.841 129.086  0.00  0.00    +0.000 A 
ATOM     26  C   UNL     1      96.295 103.495 128.363  0.00  0.00    +0.000 A 
ENDBRANCH  20  23
ENDBRANCH  19  20
ENDBRANCH   6  19
TORSDOF 6
ENDMDL
MODEL 2
REMARK minimizedAffinity -7.97708511
REMARK minimizedRMSD -1
REMARK  Name = 04_docking/output/fentanyl.pdb
REMARK  7 active torsions:
REMARK  status: ('A' for Active; 'I' for Inactive)
REMARK    1  A    between atoms: C_2  and  C_16
REMARK    2  A    between atoms: C_2  and  C_17
REMARK    3  A    between atoms: C_5  and  N_23
REMARK    4  A    between atoms: C_9  and  C_10
REMARK    5  A    between atoms: C_10  and  C_11
REMARK    6  A    between atoms: C_12  and  N_23
REMARK    7  A    between atoms: C_16  and  N_24
REMARK                            x       y       z     vdW  Elec       q    Type
REMARK                         _______ _______ _______ _____ _____    ______ ____
ROOT
ATOM      1  C   UNL     1     102.472 106.419 126.336  0.00  0.00    +0.000 C 
ATOM      2  C   UNL     1     103.146 105.062 128.396  0.00  0.00    +0.000 C 
ATOM      3  C   UNL     1     103.972 104.180 127.444  0.00  0.00    +0.000 C 
ATOM      4  C   UNL     1     103.459 104.230 126.004  0.00  0.00    +0.000 C 
ATOM      5  C   UNL     1     102.914 106.459 127.800  0.00  0.00    +0.000 C 
ATOM      6  N   UNL     1     103.417 105.630 125.532  0.00  0.00    +0.000 N 
ATOM      7  H   UNL     1     104.353 106.019 125.650  0.00  0.00    +0.000 HD
ENDROOT
BRANCH   2   9
ATOM      8  C   UNL     1     105.116 105.297 129.936  0.00  0.00    +0.000 C 
ATOM      9  N   UNL     1     103.704 105.094 129.773  0.00  0.00    +0.000 N 
ATOM     10  O   UNL     1     105.733 106.035 129.192  0.00  0.00    +0.000 OA
BRANCH   9  11
ATOM     11  C   UNL     1     102.814 104.943 130.961  0.00  0.00    +0.000 A 
ATOM     12  C   UNL     1     102.528 106.125 131.640  0.00  0.00    +0.000 A 
ATOM     13  C   UNL     1     101.716 106.138 132.762  0.00  0.00    +0.000 A 
ATOM     14  C   UNL     1     101.445 103.762 132.561  0.00  0.00    +0.000 A 
ATOM     15  C   UNL     1     101.174 104.951 133.220  0.00  0.00    +0.000 A 
ATOM     16  C   UNL     1     102.261 103.766 131.439  0.00  0.00    +0.000 A 
ENDBRANCH   9  11
BRANCH   8  17
ATOM     17  C   UNL     1     105.958 104.623 131.035  0.00  0.00    +0.000 C 
ATOM     18  C   UNL     1     106.356 103.197 130.604  0.00  0.00    +0.000 C 
ENDBRANCH   8  17
ENDBRANCH   2   9
BRANCH   6  19
ATOM     19  C   UNL     1     103.082 105.719 124.100  0.00  0.00    +0.000 C 
BRANCH  19  20
ATOM     20  C   UNL     1     103.745 104.620 123.275  0.00  0.00    +0.000 C 
BRANCH  20  23
ATOM     21  C   UNL     1     105.990 105.768 123.314  0.00  0.00    +0.000 A 
ATOM     22  C   UNL     1     107.179 106.186 121.291  0.00  0.00    +0.000 A 
ATOM     23  C   UNL     1     104.980 105.183 122.568  0.00  0.00    +0.000 A 
ATOM     24  C   UNL     1     107.098 106.271 122.665  0.00  0.00    +0.000 A 
ATOM     25  C   UNL     1     106.181 105.609 120.546  0.00  0.00    +0.000 A 
ATOM     26  C   UNL     1     105.068 105.104 121.192  0.00  0.00    +0.000 A 
ENDBRANCH  20  23
ENDBRANCH  19  20
ENDBRANCH   6  19
TORSDOF 6
ENDMDL
MODEL 3
REMARK minimizedAffinity -7.97249126
REMARK minimizedRMSD -1
REMARK  Name = 04_docking/output/fentanyl.pdb
REMARK  7 active torsions:
REMARK  status: ('A' for Active; 'I' for Inactive)
REMARK    1  A    between atoms: C_2  and  C_16
REMARK    2  A    between atoms: C_2  and  C_17
REMARK    3  A    between atoms: C_5  and  N_23
REMARK    4  A    between atoms: C_9  and  C_10
REMARK    5  A    between atoms: C_10  and  C_11
REMARK    6  A    between atoms: C_12  and  N_23
REMARK    7  A    between atoms: C_16  and  N_24
REMARK                            x       y       z     vdW  Elec       q    Type
REMARK                         _______ _______ _______ _____ _____    ______ ____
ROOT
ATOM      1  C   UNL     1     100.343 105.019 127.477  0.00  0.00    +0.000 C 
ATOM      2  C   UNL     1     102.589 104.949 128.698  0.00  0.00    +0.000 C 
ATOM      3  C   UNL     1     102.977 106.198 127.885  0.00  0.00    +0.000 C 
ATOM      4  C   UNL     1     102.183 106.320 126.584  0.00  0.00    +0.000 C 
ATOM      5  C   UNL     1     101.063 104.811 128.811  0.00  0.00    +0.000 C 
ATOM      6  N   UNL     1     100.733 106.301 126.873  0.00  0.00    +0.000 N 
ATOM      7  H   UNL     1     100.547 107.049 127.541  0.00  0.00    +0.000 HD
ENDROOT
BRANCH   2   9
ATOM      8  C   UNL     1     104.716 104.767 130.021  0.00  0.00    +0.000 C 
ATOM      9  N   UNL     1     103.285 104.884 130.009  0.00  0.00    +0.000 N 
ATOM     10  O   UNL     1     105.398 105.331 129.187  0.00  0.00    +0.000 OA
BRANCH   9  11
ATOM     11  C   UNL     1     102.516 104.962 131.285  0.00  0.00    +0.000 A 
ATOM     12  C   UNL     1     102.492 106.218 131.886  0.00  0.00    +0.000 A 
ATOM     13  C   UNL     1     101.818 106.442 133.074  0.00  0.00    +0.000 A 
ATOM     14  C   UNL     1     101.163 104.133 133.105  0.00  0.00    +0.000 A 
ATOM     15  C   UNL     1     101.152 105.393 133.682  0.00  0.00    +0.000 A 
ATOM     16  C   UNL     1     101.843 103.926 131.914  0.00  0.00    +0.000 A 
ENDBRANCH   9  11
BRANCH   8  17
ATOM     17  C   UNL     1     105.501 103.944 131.059  0.00  0.00    +0.000 C 
ATOM     18  C   UNL     1     106.582 103.095 130.361  0.00  0.00    +0.000 C 
ENDBRANCH   8  17
ENDBRANCH   2   9
BRANCH   6  19
ATOM     19  C   UNL     1      99.928 106.577 125.671  0.00  0.00    +0.000 C 
BRANCH  19  20
ATOM     20  C   UNL     1      99.161 107.892 125.770  0.00  0.00    +0.000 C 
BRANCH  20  23
ATOM     21  C   UNL     1      97.657 106.711 124.125  0.00  0.00    +0.000 A 
ATOM     22  C   UNL     1      95.527 107.615 123.557  0.00  0.00    +0.000 A 
ATOM     23  C   UNL     1      97.858 107.788 124.974  0.00  0.00    +0.000 A 
ATOM     24  C   UNL     1      96.479 106.628 123.414  0.00  0.00    +0.000 A 
ATOM     25  C   UNL     1      95.720 108.684 124.395  0.00  0.00    +0.000 A 
ATOM     26  C   UNL     1      96.899 108.772 125.110  0.00  0.00    +0.000 A 
ENDBRANCH  20  23
ENDBRANCH  19  20
ENDBRANCH   6  19
TORSDOF 6
ENDMDL
MODEL 4
REMARK minimizedAffinity -7.71081114
REMARK minimizedRMSD -1
REMARK  Name = 04_docking/output/fentanyl.pdb
REMARK  7 active torsions:
REMARK  status: ('A' for Active; 'I' for Inactive)
REMARK    1  A    between atoms: C_2  and  C_16
REMARK    2  A    between atoms: C_2  and  C_17
REMARK    3  A    between atoms: C_5  and  N_23
REMARK    4  A    between atoms: C_9  and  C_10
REMARK    5  A    between atoms: C_10  and  C_11
REMARK    6  A    between atoms: C_12  and  N_23
REMARK    7  A    between atoms: C_16  and  N_24
REMARK                            x       y       z     vdW  Elec       q    Type
REMARK                         _______ _______ _______ _____ _____    ______ ____
ROOT
ATOM      1  C   UNL     1     102.767 106.062 126.368  0.00  0.00    +0.000 C 
ATOM      2  C   UNL     1     103.051 104.928 128.643  0.00  0.00    +0.000 C 
ATOM      3  C   UNL     1     103.635 103.726 127.879  0.00  0.00    +0.000 C 
ATOM      4  C   UNL     1     103.167 103.672 126.424  0.00  0.00    +0.000 C 
ATOM      5  C   UNL     1     103.189 106.224 127.830  0.00  0.00    +0.000 C 
ATOM      6  N   UNL     1     103.488 104.944 125.743  0.00  0.00    +0.000 N 
ATOM      7  H   UNL     1     104.491 105.101 125.847  0.00  0.00    +0.000 HD
ENDROOT
BRANCH   2   9
ATOM      8  C   UNL     1     104.990 105.268 130.201  0.00  0.00    +0.000 C 
ATOM      9  N   UNL     1     103.584 105.039 130.025  0.00  0.00    +0.000 N 
ATOM     10  O   UNL     1     105.612 105.974 129.431  0.00  0.00    +0.000 OA
BRANCH   9  11
ATOM     11  C   UNL     1     102.675 104.938 131.204  0.00  0.00    +0.000 A 
ATOM     12  C   UNL     1     102.431 106.138 131.867  0.00  0.00    +0.000 A 
ATOM     13  C   UNL     1     101.608 106.198 132.979  0.00  0.00    +0.000 A 
ATOM     14  C   UNL     1     101.240 103.833 132.801  0.00  0.00    +0.000 A 
ATOM     15  C   UNL     1     101.012 105.040 133.443  0.00  0.00    +0.000 A 
ATOM     16  C   UNL     1     102.068 103.790 131.688  0.00  0.00    +0.000 A 
ENDBRANCH   9  11
BRANCH   8  17
ATOM     17  C   UNL     1     105.821 104.663 131.348  0.00  0.00    +0.000 C 
ATOM     18  C   UNL     1     106.220 103.213 131.012  0.00  0.00    +0.000 C 
ENDBRANCH   8  17
ENDBRANCH   2   9
BRANCH   6  19
ATOM     19  C   UNL     1     103.202 104.884 124.299  0.00  0.00    +0.000 C 
BRANCH  19  20
ATOM     20  C   UNL     1     104.348 104.267 123.502  0.00  0.00    +0.000 C 
BRANCH  20  23
ATOM     21  C   UNL     1     106.150 106.001 123.173  0.00  0.00    +0.000 A 
ATOM     22  C   UNL     1     108.027 106.098 124.637  0.00  0.00    +0.000 A 
ATOM     23  C   UNL     1     105.668 104.928 123.905  0.00  0.00    +0.000 A 
ATOM     24  C   UNL     1     107.340 106.589 123.548  0.00  0.00    +0.000 A 
ATOM     25  C   UNL     1     107.556 105.034 125.366  0.00  0.00    +0.000 A 
ATOM     26  C   UNL     1     106.364 104.442 124.995  0.00  0.00    +0.000 A 
ENDBRANCH  20  23
ENDBRANCH  19  20
ENDBRANCH   6  19
TORSDOF 6
ENDMDL
MODEL 5
REMARK minimizedAffinity -7.39530134
REMARK minimizedRMSD -1
REMARK  Name = 04_docking/output/fentanyl.pdb
REMARK  7 active torsions:
REMARK  status: ('A' for Active; 'I' for Inactive)
REMARK    1  A    between atoms: C_2  and  C_16
REMARK    2  A    between atoms: C_2  and  C_17
REMARK    3  A    between atoms: C_5  and  N_23
REMARK    4  A    between atoms: C_9  and  C_10
REMARK    5  A    between atoms: C_10  and  C_11
REMARK    6  A    between atoms: C_12  and  N_23
REMARK    7  A    between atoms: C_16  and  N_24
REMARK                            x       y       z     vdW  Elec       q    Type
REMARK                         _______ _______ _______ _____ _____    ______ ____
ROOT
ATOM      1  C   UNL     1     102.471 105.885 125.680  0.00  0.00    +0.000 C 
ATOM      2  C   UNL     1     103.270 104.835 127.871  0.00  0.00    +0.000 C 
ATOM      3  C   UNL     1     104.182 103.939 127.014  0.00  0.00    +0.000 C 
ATOM      4  C   UNL     1     103.670 103.780 125.582  0.00  0.00    +0.000 C 
ATOM      5  C   UNL     1     102.904 106.128 127.127  0.00  0.00    +0.000 C 
ATOM      6  N   UNL     1     103.491 105.109 124.959  0.00  0.00    +0.000 N 
ATOM      7  H   UNL     1     104.383 105.598 125.026  0.00  0.00    +0.000 HD
ENDROOT
BRANCH   2   9
ATOM      8  C   UNL     1     105.220 105.358 129.365  0.00  0.00    +0.000 C 
ATOM      9  N   UNL     1     103.819 105.073 129.231  0.00  0.00    +0.000 N 
ATOM     10  O   UNL     1     105.808 106.018 128.530  0.00  0.00    +0.000 OA
BRANCH   9  11
ATOM     11  C   UNL     1     102.931 105.040 130.429  0.00  0.00    +0.000 A 
ATOM     12  C   UNL     1     102.530 103.768 130.834  0.00  0.00    +0.000 A 
ATOM     13  C   UNL     1     101.705 103.582 131.930  0.00  0.00    +0.000 A 
ATOM     14  C   UNL     1     101.649 105.959 132.258  0.00  0.00    +0.000 A 
ATOM     15  C   UNL     1     101.266 104.684 132.641  0.00  0.00    +0.000 A 
ATOM     16  C   UNL     1     102.477 106.128 131.157  0.00  0.00    +0.000 A 
ENDBRANCH   9  11
BRANCH   8  17
ATOM     17  C   UNL     1     106.085 104.872 130.542  0.00  0.00    +0.000 C 
ATOM     18  C   UNL     1     106.418 103.376 130.380  0.00  0.00    +0.000 C 
ENDBRANCH   8  17
ENDBRANCH   2   9
BRANCH   6  19
ATOM     19  C   UNL     1     103.153 105.007 123.529  0.00  0.00    +0.000 C 
BRANCH  19  20
ATOM     20  C   UNL     1     104.381 104.783 122.652  0.00  0.00    +0.000 C 
BRANCH  20  23
ATOM     21  C   UNL     1     102.692 105.251 120.839  0.00  0.00    +0.000 A 
ATOM     22  C   UNL     1     103.365 105.407 118.559  0.00  0.00    +0.000 A 
ATOM     23  C   UNL     1     104.011 105.008 121.185  0.00  0.00    +0.000 A 
ATOM     24  C   UNL     1     102.372 105.454 119.513  0.00  0.00    +0.000 A 
ATOM     25  C   UNL     1     104.674 105.165 118.894  0.00  0.00    +0.000 A 
ATOM     26  C   UNL     1     105.000 104.962 120.222  0.00  0.00    +0.000 A 
ENDBRANCH  20  23
ENDBRANCH  19  20
ENDBRANCH   6  19
TORSDOF 6
ENDMDL
MODEL 6
REMARK minimizedAffinity -7.36470461
REMARK minimizedRMSD -1
REMARK  Name = 04_docking/output/fentanyl.pdb
REMARK  7 active torsions:
REMARK  status: ('A' for Active; 'I' for Inactive)
REMARK    1  A    between atoms: C_2  and  C_16
REMARK    2  A    between atoms: C_2  and  C_17
REMARK    3  A    between atoms: C_5  and  N_23
REMARK    4  A    between atoms: C_9  and  C_10
REMARK    5  A    between atoms: C_10  and  C_11
REMARK    6  A    between atoms: C_12  and  N_23
REMARK    7  A    between atoms: C_16  and  N_24
REMARK                            x       y       z     vdW  Elec       q    Type
REMARK                         _______ _______ _______ _____ _____    ______ ____
ROOT
ATOM      1  C   UNL     1     101.998 103.430 126.448  0.00  0.00    +0.000 C 
ATOM      2  C   UNL     1     102.668 104.986 128.364  0.00  0.00    +0.000 C 
ATOM      3  C   UNL     1     101.191 105.413 128.425  0.00  0.00    +0.000 C 
ATOM      4  C   UNL     1     100.459 105.186 127.101  0.00  0.00    +0.000 C 
ATOM      5  C   UNL     1     102.819 103.595 127.728  0.00  0.00    +0.000 C 
ATOM      6  N   UNL     1     100.588 103.772 126.689  0.00  0.00    +0.000 N 
ATOM      7  H   UNL     1     100.239 103.199 127.457  0.00  0.00    +0.000 HD
ENDROOT
BRANCH   2   9
ATOM      8  C   UNL     1     104.758 105.403 129.693  0.00  0.00    +0.000 C 
ATOM      9  N   UNL     1     103.353 105.111 129.677  0.00  0.00    +0.000 N 
ATOM     10  O   UNL     1     105.254 106.143 128.865  0.00  0.00    +0.000 OA
BRANCH   9  11
ATOM     11  C   UNL     1     102.591 104.959 130.951  0.00  0.00    +0.000 A 
ATOM     12  C   UNL     1     102.359 106.144 131.646  0.00  0.00    +0.000 A 
ATOM     13  C   UNL     1     101.666 106.158 132.845  0.00  0.00    +0.000 A 
ATOM     14  C   UNL     1     101.411 103.776 132.694  0.00  0.00    +0.000 A 
ATOM     15  C   UNL     1     101.192 104.968 133.366  0.00  0.00    +0.000 A 
ATOM     16  C   UNL     1     102.107 103.779 131.494  0.00  0.00    +0.000 A 
ENDBRANCH   9  11
BRANCH   8  17
ATOM     17  C   UNL     1     105.742 104.829 130.729  0.00  0.00    +0.000 C 
ATOM     18  C   UNL     1     106.261 103.452 130.266  0.00  0.00    +0.000 C 
ENDBRANCH   8  17
ENDBRANCH   2   9
BRANCH   6  19
ATOM     19  C   UNL     1      99.768 103.465 125.505  0.00  0.00    +0.000 C 
BRANCH  19  20
ATOM     20  C   UNL     1      98.371 102.974 125.873  0.00  0.00    +0.000 C 
BRANCH  20  23
ATOM     21  C   UNL     1      98.805 101.441 123.917  0.00  0.00    +0.000 A 
ATOM     22  C   UNL     1      97.329  99.634 123.435  0.00  0.00    +0.000 A 
ATOM     23  C   UNL     1      98.002 101.776 124.995  0.00  0.00    +0.000 A 
ATOM     24  C   UNL     1      98.462 100.359 123.134  0.00  0.00    +0.000 A 
ATOM     25  C   UNL     1      96.527  99.961 124.501  0.00  0.00    +0.000 A 
ATOM     26  C   UNL     1      96.867 101.045 125.288  0.00  0.00    +0.000 A 
ENDBRANCH  20  23
ENDBRANCH  19  20
ENDBRANCH   6  19
TORSDOF 6
ENDMDL
MODEL 7
REMARK minimizedAffinity -7.17473888
REMARK minimizedRMSD -1
REMARK  Name = 04_docking/output/fentanyl.pdb
REMARK  7 active torsions:
REMARK  status: ('A' for Active; 'I' for Inactive)
REMARK    1  A    between atoms: C_2  and  C_16
REMARK    2  A    between atoms: C_2  and  C_17
REMARK    3  A    between atoms: C_5  and  N_23
REMARK    4  A    between atoms: C_9  and  C_10
REMARK    5  A    between atoms: C_10  and  C_11
REMARK    6  A    between atoms: C_12  and  N_23
REMARK    7  A    between atoms: C_16  and  N_24
REMARK                            x       y       z     vdW  Elec       q    Type
REMARK                         _______ _______ _______ _____ _____    ______ ____
ROOT
ATOM      1  C   UNL     1     103.395 106.505 130.619  0.00  0.00    +0.000 C 
ATOM      2  C   UNL     1     104.743 104.939 129.112  0.00  0.00    +0.000 C 
ATOM      3  C   UNL     1     103.628 103.901 129.331  0.00  0.00    +0.000 C 
ATOM      4  C   UNL     1     102.846 104.143 130.623  0.00  0.00    +0.000 C 
ATOM      5  C   UNL     1     104.226 106.367 129.342  0.00  0.00    +0.000 C 
ATOM      6  N   UNL     1     102.304 105.519 130.635  0.00  0.00    +0.000 N 
ATOM      7  H   UNL     1     101.747 105.633 129.788  0.00  0.00    +0.000 HD
ENDROOT
BRANCH   2   9
ATOM      8  C   UNL     1     104.663 104.862 126.603  0.00  0.00    +0.000 C 
ATOM      9  N   UNL     1     105.435 104.765 127.809  0.00  0.00    +0.000 N 
ATOM     10  O   UNL     1     103.740 105.649 126.511  0.00  0.00    +0.000 OA
BRANCH   9  11
ATOM     11  C   UNL     1     106.906 104.519 127.753  0.00  0.00    +0.000 A 
ATOM     12  C   UNL     1     107.434 103.842 128.849  0.00  0.00    +0.000 A 
ATOM     13  C   UNL     1     108.783 103.543 128.937  0.00  0.00    +0.000 A 
ATOM     14  C   UNL     1     109.128 104.602 126.811  0.00  0.00    +0.000 A 
ATOM     15  C   UNL     1     109.629 103.927 127.912  0.00  0.00    +0.000 A 
ATOM     16  C   UNL     1     107.773 104.894 126.739  0.00  0.00    +0.000 A 
ENDBRANCH   9  11
BRANCH   8  17
ATOM     17  C   UNL     1     104.919 104.007 125.348  0.00  0.00    +0.000 C 
ATOM     18  C   UNL     1     104.275 102.616 125.508  0.00  0.00    +0.000 C 
ENDBRANCH   8  17
ENDBRANCH   2   9
BRANCH   6  19
ATOM     19  C   UNL     1     101.410 105.750 131.782  0.00  0.00    +0.000 C 
BRANCH  19  20
ATOM     20  C   UNL     1     102.158 105.759 133.113  0.00  0.00    +0.000 C 
BRANCH  20  23
ATOM     21  C   UNL     1     101.703 108.237 133.216  0.00  0.00    +0.000 A 
ATOM     22  C   UNL     1     101.184 109.295 135.287  0.00  0.00    +0.000 A 
ATOM     23  C   UNL     1     101.808 107.031 133.888  0.00  0.00    +0.000 A 
ATOM     24  C   UNL     1     101.386 109.376 133.926  0.00  0.00    +0.000 A 
ATOM     25  C   UNL     1     101.288 108.103 135.960  0.00  0.00    +0.000 A 
ATOM     26  C   UNL     1     101.605 106.959 135.253  0.00  0.00    +0.000 A 
ENDBRANCH  20  23
ENDBRANCH  19  20
ENDBRANCH   6  19
TORSDOF 6
ENDMDL
MODEL 8
REMARK minimizedAffinity -7.15685987
REMARK minimizedRMSD -1
REMARK  Name = 04_docking/output/fentanyl.pdb
REMARK  7 active torsions:
REMARK  status: ('A' for Active; 'I' for Inactive)
REMARK    1  A    between atoms: C_2  and  C_16
REMARK    2  A    between atoms: C_2  and  C_17
REMARK    3  A    between atoms: C_5  and  N_23
REMARK    4  A    between atoms: C_9  and  C_10
REMARK    5  A    between atoms: C_10  and  C_11
REMARK    6  A    between atoms: C_12  and  N_23
REMARK    7  A    between atoms: C_16  and  N_24
REMARK                            x       y       z     vdW  Elec       q    Type
REMARK                         _______ _______ _______ _____ _____    ______ ____
ROOT
ATOM      1  C   UNL     1     102.626 106.382 125.390  0.00  0.00    +0.000 C 
ATOM      2  C   UNL     1     102.296 104.978 127.501  0.00  0.00    +0.000 C 
ATOM      3  C   UNL     1     103.021 103.840 126.759  0.00  0.00    +0.000 C 
ATOM      4  C   UNL     1     102.933 103.982 125.238  0.00  0.00    +0.000 C 
ATOM      5  C   UNL     1     102.671 106.349 126.919  0.00  0.00    +0.000 C 
ATOM      6  N   UNL     1     103.450 105.304 124.824  0.00  0.00    +0.000 N 
ATOM      7  H   UNL     1     104.398 105.388 125.192  0.00  0.00    +0.000 HD
ENDROOT
BRANCH   2   9
ATOM      8  C   UNL     1     101.296 104.894 129.803  0.00  0.00    +0.000 C 
ATOM      9  N   UNL     1     102.468 104.896 128.975  0.00  0.00    +0.000 N 
ATOM     10  O   UNL     1     100.277 104.334 129.446  0.00  0.00    +0.000 OA
BRANCH   9  11
ATOM     11  C   UNL     1     103.828 104.796 129.580  0.00  0.00    +0.000 A 
ATOM     12  C   UNL     1     104.637 105.916 129.407  0.00  0.00    +0.000 A 
ATOM     13  C   UNL     1     105.925 105.967 129.914  0.00  0.00    +0.000 A 
ATOM     14  C   UNL     1     105.637 103.752 130.792  0.00  0.00    +0.000 A 
ATOM     15  C   UNL     1     106.422 104.879 130.608  0.00  0.00    +0.000 A 
ATOM     16  C   UNL     1     104.348 103.718 130.278  0.00  0.00    +0.000 A 
ENDBRANCH   9  11
BRANCH   8  17
ATOM     17  C   UNL     1     101.217 105.577 131.181  0.00  0.00    +0.000 C 
ATOM     18  C   UNL     1     101.136 104.519 132.298  0.00  0.00    +0.000 C 
ENDBRANCH   8  17
ENDBRANCH   2   9
BRANCH   6  19
ATOM     19  C   UNL     1     103.535 105.428 123.359  0.00  0.00    +0.000 C 
BRANCH  19  20
ATOM     20  C   UNL     1     104.805 104.801 122.792  0.00  0.00    +0.000 C 
BRANCH  20  23
ATOM     21  C   UNL     1     106.346 104.513 124.768  0.00  0.00    +0.000 A 
ATOM     22  C   UNL     1     108.160 106.015 125.126  0.00  0.00    +0.000 A 
ATOM     23  C   UNL     1     106.009 105.232 123.633  0.00  0.00    +0.000 A 
ATOM     24  C   UNL     1     107.433 104.911 125.517  0.00  0.00    +0.000 A 
ATOM     25  C   UNL     1     107.832 106.733 124.003  0.00  0.00    +0.000 A 
ATOM     26  C   UNL     1     106.743 106.338 123.250  0.00  0.00    +0.000 A 
ENDBRANCH  20  23
ENDBRANCH  19  20
ENDBRANCH   6  19
TORSDOF 6
ENDMDL
MODEL 9
REMARK minimizedAffinity -6.99895525
REMARK minimizedRMSD -1
REMARK  Name = 04_docking/output/fentanyl.pdb
REMARK  7 active torsions:
REMARK  status: ('A' for Active; 'I' for Inactive)
REMARK    1  A    between atoms: C_2  and  C_16
REMARK    2  A    between atoms: C_2  and  C_17
REMARK    3  A    between atoms: C_5  and  N_23
REMARK    4  A    between atoms: C_9  and  C_10
REMARK    5  A    between atoms: C_10  and  C_11
REMARK    6  A    between atoms: C_12  and  N_23
REMARK    7  A    between atoms: C_16  and  N_24
REMARK                            x       y       z     vdW  Elec       q    Type
REMARK                         _______ _______ _______ _____ _____    ______ ____
ROOT
ATOM      1  C   UNL     1     100.083 104.661 128.177  0.00  0.00    +0.000 C 
ATOM      2  C   UNL     1      99.833 105.993 126.008  0.00  0.00    +0.000 C 
ATOM      3  C   UNL     1     101.369 105.961 125.908  0.00  0.00    +0.000 C 
ATOM      4  C   UNL     1     102.042 105.762 127.267  0.00  0.00    +0.000 C 
ATOM      5  C   UNL     1      99.308 104.835 126.869  0.00  0.00    +0.000 C 
ATOM      6  N   UNL     1     101.523 104.536 127.912  0.00  0.00    +0.000 N 
ATOM      7  H   UNL     1     101.672 103.764 127.261  0.00  0.00    +0.000 HD
ENDROOT
BRANCH   2   9
ATOM      8  C   UNL     1      99.720 105.319 123.592  0.00  0.00    +0.000 C 
ATOM      9  N   UNL     1      99.177 106.084 124.678  0.00  0.00    +0.000 N 
ATOM     10  O   UNL     1     100.189 104.212 123.777  0.00  0.00    +0.000 OA
BRANCH   9  11
ATOM     11  C   UNL     1      97.967 106.934 124.482  0.00  0.00    +0.000 A 
ATOM     12  C   UNL     1      97.909 108.075 125.279  0.00  0.00    +0.000 A 
ATOM     13  C   UNL     1      96.845 108.958 125.206  0.00  0.00    +0.000 A 
ATOM     14  C   UNL     1      95.847 107.574 123.518  0.00  0.00    +0.000 A 
ATOM     15  C   UNL     1      95.813 108.702 124.321  0.00  0.00    +0.000 A 
ATOM     16  C   UNL     1      96.921 106.699 123.603  0.00  0.00    +0.000 A 
ENDBRANCH   9  11
BRANCH   8  17
ATOM     17  C   UNL     1      99.757 105.808 122.132  0.00  0.00    +0.000 C 
ATOM     18  C   UNL     1     100.945 106.767 121.920  0.00  0.00    +0.000 C 
ENDBRANCH   8  17
ENDBRANCH   2   9
BRANCH   6  19
ATOM     19  C   UNL     1     102.254 104.213 129.149  0.00  0.00    +0.000 C 
BRANCH  19  20
ATOM     20  C   UNL     1     102.686 105.460 129.916  0.00  0.00    +0.000 C 
BRANCH  20  23
ATOM     21  C   UNL     1     101.379 104.311 131.742  0.00  0.00    +0.000 A 
ATOM     22  C   UNL     1     101.104 105.338 133.874  0.00  0.00    +0.000 A 
ATOM     23  C   UNL     1     102.117 105.411 131.336  0.00  0.00    +0.000 A 
ATOM     24  C   UNL     1     100.872 104.278 133.024  0.00  0.00    +0.000 A 
ATOM     25  C   UNL     1     101.833 106.432 133.478  0.00  0.00    +0.000 A 
ATOM     26  C   UNL     1     102.343 106.469 132.194  0.00  0.00    +0.000 A 
ENDBRANCH  20  23
ENDBRANCH  19  20
ENDBRANCH   6  19
TORSDOF 6
ENDMDL
MODEL 10
REMARK minimizedAffinity -6.98083401
REMARK minimizedRMSD -1
REMARK  Name = 04_docking/output/fentanyl.pdb
REMARK  7 active torsions:
REMARK  status: ('A' for Active; 'I' for Inactive)
REMARK    1  A    between atoms: C_2  and  C_16
REMARK    2  A    between atoms: C_2  and  C_17
REMARK    3  A    between atoms: C_5  and  N_23
REMARK    4  A    between atoms: C_9  and  C_10
REMARK    5  A    between atoms: C_10  and  C_11
REMARK    6  A    between atoms: C_12  and  N_23
REMARK    7  A    between atoms: C_16  and  N_24
REMARK                            x       y       z     vdW  Elec       q    Type
REMARK                         _______ _______ _______ _____ _____    ______ ____
ROOT
ATOM      1  C   UNL     1     100.195 105.286 130.350  0.00  0.00    +0.000 C 
ATOM      2  C   UNL     1     101.751 105.225 128.321  0.00  0.00    +0.000 C 
ATOM      3  C   UNL     1     102.824 104.652 129.264  0.00  0.00    +0.000 C 
ATOM      4  C   UNL     1     102.575 105.018 130.728  0.00  0.00    +0.000 C 
ATOM      5  C   UNL     1     100.338 104.961 128.862  0.00  0.00    +0.000 C 
ATOM      6  N   UNL     1     101.221 104.583 131.133  0.00  0.00    +0.000 N 
ATOM      7  H   UNL     1     101.153 103.583 130.941  0.00  0.00    +0.000 HD
ENDROOT
BRANCH   2   9
ATOM      8  C   UNL     1     102.365 103.439 126.666  0.00  0.00    +0.000 C 
ATOM      9  N   UNL     1     101.935 104.786 126.914  0.00  0.00    +0.000 N 
ATOM     10  O   UNL     1     101.987 102.521 127.368  0.00  0.00    +0.000 OA
BRANCH   9  11
ATOM     11  C   UNL     1     101.658 105.718 125.781  0.00  0.00    +0.000 A 
ATOM     12  C   UNL     1     102.496 106.828 125.709  0.00  0.00    +0.000 A 
ATOM     13  C   UNL     1     102.357 107.778 124.712  0.00  0.00    +0.000 A 
ATOM     14  C   UNL     1     100.515 106.529 123.815  0.00  0.00    +0.000 A 
ATOM     15  C   UNL     1     101.362 107.624 123.764  0.00  0.00    +0.000 A 
ATOM     16  C   UNL     1     100.667 105.585 124.821  0.00  0.00    +0.000 A 
ENDBRANCH   9  11
BRANCH   8  17
ATOM     17  C   UNL     1     103.315 103.038 125.522  0.00  0.00    +0.000 C 
ATOM     18  C   UNL     1     104.759 103.466 125.851  0.00  0.00    +0.000 C 
ENDBRANCH   8  17
ENDBRANCH   2   9
BRANCH   6  19
ATOM     19  C   UNL     1     100.992 104.767 132.577  0.00  0.00    +0.000 C 
BRANCH  19  20
ATOM     20  C   UNL     1     102.211 105.338 133.294  0.00  0.00    +0.000 C 
BRANCH  20  23
ATOM     21  C   UNL     1     101.582 106.795 135.255  0.00  0.00    +0.000 A 
ATOM     22  C   UNL     1     101.229 109.133 134.970  0.00  0.00    +0.000 A 
ATOM     23  C   UNL     1     101.859 106.698 133.901  0.00  0.00    +0.000 A 
ATOM     24  C   UNL     1     101.267 108.026 135.790  0.00  0.00    +0.000 A 
ATOM     25  C   UNL     1     101.500 109.045 133.627  0.00  0.00    +0.000 A 
ATOM     26  C   UNL     1     101.817 107.813 133.087  0.00  0.00    +0.000 A 
ENDBRANCH  20  23
ENDBRANCH  19  20
ENDBRANCH   6  19
TORSDOF 6
ENDMDL
MODEL 11
REMARK minimizedAffinity -6.94602537
REMARK minimizedRMSD -1
REMARK  Name = 04_docking/output/fentanyl.pdb
REMARK  7 active torsions:
REMARK  status: ('A' for Active; 'I' for Inactive)
REMARK    1  A    between atoms: C_2  and  C_16
REMARK    2  A    between atoms: C_2  and  C_17
REMARK    3  A    between atoms: C_5  and  N_23
REMARK    4  A    between atoms: C_9  and  C_10
REMARK    5  A    between atoms: C_10  and  C_11
REMARK    6  A    between atoms: C_12  and  N_23
REMARK    7  A    between atoms: C_16  and  N_24
REMARK                            x       y       z     vdW  Elec       q    Type
REMARK                         _______ _______ _______ _____ _____    ______ ____
ROOT
ATOM      1  C   UNL     1      99.574 105.375 128.406  0.00  0.00    +0.000 C 
ATOM      2  C   UNL     1     101.620 104.304 129.504  0.00  0.00    +0.000 C 
ATOM      3  C   UNL     1     102.283 104.340 128.115  0.00  0.00    +0.000 C 
ATOM      4  C   UNL     1     101.260 104.377 126.978  0.00  0.00    +0.000 C 
ATOM      5  C   UNL     1     100.509 105.357 129.617  0.00  0.00    +0.000 C 
ATOM      6  N   UNL     1     100.343 105.522 127.161  0.00  0.00    +0.000 N 
ATOM      7  H   UNL     1     100.916 106.363 127.228  0.00  0.00    +0.000 HD
ENDROOT
BRANCH   2   9
ATOM      8  C   UNL     1     102.144 104.219 131.958  0.00  0.00    +0.000 C 
ATOM      9  N   UNL     1     102.611 104.370 130.609  0.00  0.00    +0.000 N 
ATOM     10  O   UNL     1     101.236 103.456 132.226  0.00  0.00    +0.000 OA
BRANCH   9  11
ATOM     11  C   UNL     1     104.062 104.567 130.322  0.00  0.00    +0.000 A 
ATOM     12  C   UNL     1     104.839 103.413 130.388  0.00  0.00    +0.000 A 
ATOM     13  C   UNL     1     106.202 103.442 130.146  0.00  0.00    +0.000 A 
ATOM     14  C   UNL     1     106.057 105.806 129.760  0.00  0.00    +0.000 A 
ATOM     15  C   UNL     1     106.809 104.644 129.831  0.00  0.00    +0.000 A 
ATOM     16  C   UNL     1     104.692 105.760 130.006  0.00  0.00    +0.000 A 
ENDBRANCH   9  11
BRANCH   8  17
ATOM     17  C   UNL     1     102.732 104.982 133.160  0.00  0.00    +0.000 C 
ATOM     18  C   UNL     1     101.706 105.996 133.703  0.00  0.00    +0.000 C 
ENDBRANCH   8  17
ENDBRANCH   2   9
BRANCH   6  19
ATOM     19  C   UNL     1      99.441 105.697 126.010  0.00  0.00    +0.000 C 
BRANCH  19  20
ATOM     20  C   UNL     1      99.240 107.163 125.641  0.00  0.00    +0.000 C 
BRANCH  20  23
ATOM     21  C   UNL     1      97.185 108.530 125.124  0.00  0.00    +0.000 A 
ATOM     22  C   UNL     1      95.444 107.643 123.760  0.00  0.00    +0.000 A 
ATOM     23  C   UNL     1      97.878 107.341 124.968  0.00  0.00    +0.000 A 
ATOM     24  C   UNL     1      95.958 108.678 124.511  0.00  0.00    +0.000 A 
ATOM     25  C   UNL     1      96.124 106.461 123.603  0.00  0.00    +0.000 A 
ATOM     26  C   UNL     1      97.354 106.308 124.215  0.00  0.00    +0.000 A 
ENDBRANCH  20  23
ENDBRANCH  19  20
ENDBRANCH   6  19
TORSDOF 6
ENDMDL
MODEL 12
REMARK minimizedAffinity -6.93762684
REMARK minimizedRMSD -1
REMARK  Name = 04_docking/output/fentanyl.pdb
REMARK  7 active torsions:
REMARK  status: ('A' for Active; 'I' for Inactive)
REMARK    1  A    between atoms: C_2  and  C_16
REMARK    2  A    between atoms: C_2  and  C_17
REMARK    3  A    between atoms: C_5  and  N_23
REMARK    4  A    between atoms: C_9  and  C_10
REMARK    5  A    between atoms: C_10  and  C_11
REMARK    6  A    between atoms: C_12  and  N_23
REMARK    7  A    between atoms: C_16  and  N_24
REMARK                            x       y       z     vdW  Elec       q    Type
REMARK                         _______ _______ _______ _____ _____    ______ ____
ROOT
ATOM      1  C   UNL     1     102.683 106.268 126.869  0.00  0.00    +0.000 C 
ATOM      2  C   UNL     1     100.604 105.882 125.429  0.00  0.00    +0.000 C 
ATOM      3  C   UNL     1      99.868 105.523 126.732  0.00  0.00    +0.000 C 
ATOM      4  C   UNL     1     100.820 105.051 127.832  0.00  0.00    +0.000 C 
ATOM      5  C   UNL     1     101.824 106.773 125.707  0.00  0.00    +0.000 C 
ATOM      6  N   UNL     1     101.861 106.073 128.072  0.00  0.00    +0.000 N 
ATOM      7  H   UNL     1     101.383 106.948 128.288  0.00  0.00    +0.000 HD
ENDROOT
BRANCH   2   9
ATOM      8  C   UNL     1      98.693 107.384 124.797  0.00  0.00    +0.000 C 
ATOM      9  N   UNL     1      99.693 106.437 124.394  0.00  0.00    +0.000 N 
ATOM     10  O   UNL     1      98.918 108.201 125.670  0.00  0.00    +0.000 OA
BRANCH   9  11
ATOM     11  C   UNL     1      99.830 106.036 122.963  0.00  0.00    +0.000 A 
ATOM     12  C   UNL     1     100.747 106.781 122.225  0.00  0.00    +0.000 A 
ATOM     13  C   UNL     1     100.979 106.523 120.885  0.00  0.00    +0.000 A 
ATOM     14  C   UNL     1      99.368 104.747 120.975  0.00  0.00    +0.000 A 
ATOM     15  C   UNL     1     100.286 105.501 120.262  0.00  0.00    +0.000 A 
ATOM     16  C   UNL     1      99.147 105.018 122.317  0.00  0.00    +0.000 A 
ENDBRANCH   9  11
BRANCH   8  17
ATOM     17  C   UNL     1      97.283 107.458 124.182  0.00  0.00    +0.000 C 
ATOM     18  C   UNL     1      96.444 106.242 124.623  0.00  0.00    +0.000 C 
ENDBRANCH   8  17
ENDBRANCH   2   9
BRANCH   6  19
ATOM     19  C   UNL     1     102.706 105.739 129.231  0.00  0.00    +0.000 C 
BRANCH  19  20
ATOM     20  C   UNL     1     102.156 104.566 130.037  0.00  0.00    +0.000 C 
BRANCH  20  23
ATOM     21  C   UNL     1     101.150 104.192 132.320  0.00  0.00    +0.000 A 
ATOM     22  C   UNL     1     101.348 105.846 134.023  0.00  0.00    +0.000 A 
ATOM     23  C   UNL     1     101.864 105.020 131.469  0.00  0.00    +0.000 A 
ATOM     24  C   UNL     1     100.895 104.613 133.608  0.00  0.00    +0.000 A 
ATOM     25  C   UNL     1     102.055 106.673 133.185  0.00  0.00    +0.000 A 
ATOM     26  C   UNL     1     102.314 106.255 131.893  0.00  0.00    +0.000 A 
ENDBRANCH  20  23
ENDBRANCH  19  20
ENDBRANCH   6  19
TORSDOF 6
ENDMDL
MODEL 13
REMARK minimizedAffinity -6.90525246
REMARK minimizedRMSD -1
REMARK  Name = 04_docking/output/fentanyl.pdb
REMARK  7 active torsions:
REMARK  status: ('A' for Active; 'I' for Inactive)
REMARK    1  A    between atoms: C_2  and  C_16
REMARK    2  A    between atoms: C_2  and  C_17
REMARK    3  A    between atoms: C_5  and  N_23
REMARK    4  A    between atoms: C_9  and  C_10
REMARK    5  A    between atoms: C_10  and  C_11
REMARK    6  A    between atoms: C_12  and  N_23
REMARK    7  A    between atoms: C_16  and  N_24
REMARK                            x       y       z     vdW  Elec       q    Type
REMARK                         _______ _______ _______ _____ _____    ______ ____
ROOT
ATOM      1  C   UNL     1      99.676 104.595 127.202  0.00  0.00    +0.000 C 
ATOM      2  C   UNL     1     101.620 104.449 128.857  0.00  0.00    +0.000 C 
ATOM      3  C   UNL     1     102.420 103.769 127.732  0.00  0.00    +0.000 C 
ATOM      4  C   UNL     1     101.519 103.105 126.690  0.00  0.00    +0.000 C 
ATOM      5  C   UNL     1     100.482 105.310 128.289  0.00  0.00    +0.000 C 
ATOM      6  N   UNL     1     100.565 104.094 126.144  0.00  0.00    +0.000 N 
ATOM      7  H   UNL     1     101.112 104.874 125.778  0.00  0.00    +0.000 HD
ENDROOT
BRANCH   2   9
ATOM      8  C   UNL     1     103.726 105.731 129.334  0.00  0.00    +0.000 C 
ATOM      9  N   UNL     1     102.491 105.180 129.814  0.00  0.00    +0.000 N 
ATOM     10  O   UNL     1     103.812 106.197 128.214  0.00  0.00    +0.000 OA
BRANCH   9  11
ATOM     11  C   UNL     1     102.078 105.360 131.237  0.00  0.00    +0.000 A 
ATOM     12  C   UNL     1     101.436 104.264 131.809  0.00  0.00    +0.000 A 
ATOM     13  C   UNL     1     100.996 104.285 133.121  0.00  0.00    +0.000 A 
ATOM     14  C   UNL     1     101.835 106.523 133.338  0.00  0.00    +0.000 A 
ATOM     15  C   UNL     1     101.199 105.421 133.885  0.00  0.00    +0.000 A 
ATOM     16  C   UNL     1     102.270 106.486 132.021  0.00  0.00    +0.000 A 
ENDBRANCH   9  11
BRANCH   8  17
ATOM     17  C   UNL     1     105.022 105.784 130.165  0.00  0.00    +0.000 C 
ATOM     18  C   UNL     1     105.596 104.365 130.351  0.00  0.00    +0.000 C 
ENDBRANCH   8  17
ENDBRANCH   2   9
BRANCH   6  19
ATOM     19  C   UNL     1      99.783 103.545 125.023  0.00  0.00    +0.000 C 
BRANCH  19  20
ATOM     20  C   UNL     1     100.039 104.285 123.713  0.00  0.00    +0.000 C 
BRANCH  20  23
ATOM     21  C   UNL     1     100.147 106.730 124.322  0.00  0.00    +0.000 A 
ATOM     22  C   UNL     1     102.243 107.851 124.492  0.00  0.00    +0.000 A 
ATOM     23  C   UNL     1     100.825 105.567 123.994  0.00  0.00    +0.000 A 
ATOM     24  C   UNL     1     100.867 107.879 124.574  0.00  0.00    +0.000 A 
ATOM     25  C   UNL     1     102.921 106.703 124.167  0.00  0.00    +0.000 A 
ATOM     26  C   UNL     1     102.204 105.549 123.914  0.00  0.00    +0.000 A 
ENDBRANCH  20  23
ENDBRANCH  19  20
ENDBRANCH   6  19
TORSDOF 6
ENDMDL
MODEL 14
REMARK minimizedAffinity -6.80621815
REMARK minimizedRMSD -1
REMARK  Name = 04_docking/output/fentanyl.pdb
REMARK  7 active torsions:
REMARK  status: ('A' for Active; 'I' for Inactive)
REMARK    1  A    between atoms: C_2  and  C_16
REMARK    2  A    between atoms: C_2  and  C_17
REMARK    3  A    between atoms: C_5  and  N_23
REMARK    4  A    between atoms: C_9  and  C_10
REMARK    5  A    between atoms: C_10  and  C_11
REMARK    6  A    between atoms: C_12  and  N_23
REMARK    7  A    between atoms: C_16  and  N_24
REMARK                            x       y       z     vdW  Elec       q    Type
REMARK                         _______ _______ _______ _____ _____    ______ ____
ROOT
ATOM      1  C   UNL     1     102.281 103.624 126.450  0.00  0.00    +0.000 C 
ATOM      2  C   UNL     1     102.860 105.010 128.520  0.00  0.00    +0.000 C 
ATOM      3  C   UNL     1     101.379 105.426 128.555  0.00  0.00    +0.000 C 
ATOM      4  C   UNL     1     100.705 105.312 127.187  0.00  0.00    +0.000 C 
ATOM      5  C   UNL     1     103.046 103.680 127.774  0.00  0.00    +0.000 C 
ATOM      6  N   UNL     1     100.861 103.939 126.660  0.00  0.00    +0.000 N 
ATOM      7  H   UNL     1     100.483 103.301 127.361  0.00  0.00    +0.000 HD
ENDROOT
BRANCH   2   9
ATOM      8  C   UNL     1     104.914 105.153 129.958  0.00  0.00    +0.000 C 
ATOM      9  N   UNL     1     103.488 105.023 129.867  0.00  0.00    +0.000 N 
ATOM     10  O   UNL     1     105.531 105.852 129.177  0.00  0.00    +0.000 OA
BRANCH   9  11
ATOM     11  C   UNL     1     102.652 104.927 131.099  0.00  0.00    +0.000 A 
ATOM     12  C   UNL     1     102.486 106.121 131.796  0.00  0.00    +0.000 A 
ATOM     13  C   UNL     1     101.736 106.185 132.958  0.00  0.00    +0.000 A 
ATOM     14  C   UNL     1     101.286 103.835 132.765  0.00  0.00    +0.000 A 
ATOM     15  C   UNL     1     101.136 105.036 133.440  0.00  0.00    +0.000 A 
ATOM     16  C   UNL     1     102.042 103.789 131.601  0.00  0.00    +0.000 A 
ENDBRANCH   9  11
BRANCH   8  17
ATOM     17  C   UNL     1     105.775 104.444 131.020  0.00  0.00    +0.000 C 
ATOM     18  C   UNL     1     106.467 103.209 130.410  0.00  0.00    +0.000 C 
ENDBRANCH   8  17
ENDBRANCH   2   9
BRANCH   6  19
ATOM     19  C   UNL     1     100.093 103.734 125.420  0.00  0.00    +0.000 C 
BRANCH  19  20
ATOM     20  C   UNL     1     100.990 103.487 124.211  0.00  0.00    +0.000 C 
BRANCH  20  23
ATOM     21  C   UNL     1     100.194 104.499 122.042  0.00  0.00    +0.000 A 
ATOM     22  C   UNL     1     100.675 106.771 121.510  0.00  0.00    +0.000 A 
ATOM     23  C   UNL     1     100.874 104.663 123.238  0.00  0.00    +0.000 A 
ATOM     24  C   UNL     1     100.095 105.566 121.175  0.00  0.00    +0.000 A 
ATOM     25  C   UNL     1     101.351 106.940 122.693  0.00  0.00    +0.000 A 
ATOM     26  C   UNL     1     101.452 105.874 123.565  0.00  0.00    +0.000 A 
ENDBRANCH  20  23
ENDBRANCH  19  20
ENDBRANCH   6  19
TORSDOF 6
ENDMDL
MODEL 15
REMARK minimizedAffinity -6.71700287
REMARK minimizedRMSD -1
REMARK  Name = 04_docking/output/fentanyl.pdb
REMARK  7 active torsions:
REMARK  status: ('A' for Active; 'I' for Inactive)
REMARK    1  A    between atoms: C_2  and  C_16
REMARK    2  A    between atoms: C_2  and  C_17
REMARK    3  A    between atoms: C_5  and  N_23
REMARK    4  A    between atoms: C_9  and  C_10
REMARK    5  A    between atoms: C_10  and  C_11
REMARK    6  A    between atoms: C_12  and  N_23
REMARK    7  A    between atoms: C_16  and  N_24
REMARK                            x       y       z     vdW  Elec       q    Type
REMARK                         _______ _______ _______ _____ _____    ______ ____
ROOT
ATOM      1  C   UNL     1     100.904 104.529 126.076  0.00  0.00    +0.000 C 
ATOM      2  C   UNL     1     101.792 105.379 128.319  0.00  0.00    +0.000 C 
ATOM      3  C   UNL     1     100.328 105.406 128.795  0.00  0.00    +0.000 C 
ATOM      4  C   UNL     1      99.337 105.522 127.637  0.00  0.00    +0.000 C 
ATOM      5  C   UNL     1     101.980 104.393 127.156  0.00  0.00    +0.000 C 
ATOM      6  N   UNL     1      99.562 104.428 126.668  0.00  0.00    +0.000 N 
ATOM      7  H   UNL     1      99.495 103.549 127.182  0.00  0.00    +0.000 HD
ENDROOT
BRANCH   2   9
ATOM      8  C   UNL     1     104.153 105.120 129.135  0.00  0.00    +0.000 C 
ATOM      9  N   UNL     1     102.750 105.164 129.434  0.00  0.00    +0.000 N 
ATOM     10  O   UNL     1     104.632 105.831 128.272  0.00  0.00    +0.000 OA
BRANCH   9  11
ATOM     11  C   UNL     1     102.266 105.021 130.839  0.00  0.00    +0.000 A 
ATOM     12  C   UNL     1     102.281 106.192 131.592  0.00  0.00    +0.000 A 
ATOM     13  C   UNL     1     101.860 106.212 132.911  0.00  0.00    +0.000 A 
ATOM     14  C   UNL     1     101.392 103.863 132.769  0.00  0.00    +0.000 A 
ATOM     15  C   UNL     1     101.415 105.041 133.497  0.00  0.00    +0.000 A 
ATOM     16  C   UNL     1     101.817 103.860 131.447  0.00  0.00    +0.000 A 
ENDBRANCH   9  11
BRANCH   8  17
ATOM     17  C   UNL     1     105.156 104.200 129.855  0.00  0.00    +0.000 C 
ATOM     18  C   UNL     1     106.031 105.018 130.825  0.00  0.00    +0.000 C 
ENDBRANCH   8  17
ENDBRANCH   2   9
BRANCH   6  19
ATOM     19  C   UNL     1      98.531 104.401 125.617  0.00  0.00    +0.000 C 
BRANCH  19  20
ATOM     20  C   UNL     1      98.831 105.370 124.477  0.00  0.00    +0.000 C 
BRANCH  20  23
ATOM     21  C   UNL     1      97.899 107.639 125.066  0.00  0.00    +0.000 A 
ATOM     22  C   UNL     1      95.759 108.320 124.269  0.00  0.00    +0.000 A 
ATOM     23  C   UNL     1      97.732 106.433 124.405  0.00  0.00    +0.000 A 
ATOM     24  C   UNL     1      96.901 108.588 124.993  0.00  0.00    +0.000 A 
ATOM     25  C   UNL     1      95.587 107.127 123.613  0.00  0.00    +0.000 A 
ATOM     26  C   UNL     1      96.584 106.172 123.683  0.00  0.00    +0.000 A 
ENDBRANCH  20  23
ENDBRANCH  19  20
ENDBRANCH   6  19
TORSDOF 6
ENDMDL
MODEL 16
REMARK minimizedAffinity -6.65847588
REMARK minimizedRMSD -1
REMARK  Name = 04_docking/output/fentanyl.pdb
REMARK  7 active torsions:
REMARK  status: ('A' for Active; 'I' for Inactive)
REMARK    1  A    between atoms: C_2  and  C_16
REMARK    2  A    between atoms: C_2  and  C_17
REMARK    3  A    between atoms: C_5  and  N_23
REMARK    4  A    between atoms: C_9  and  C_10
REMARK    5  A    between atoms: C_10  and  C_11
REMARK    6  A    between atoms: C_12  and  N_23
REMARK    7  A    between atoms: C_16  and  N_24
REMARK                            x       y       z     vdW  Elec       q    Type
REMARK                         _______ _______ _______ _____ _____    ______ ____
ROOT
ATOM      1  C   UNL     1     101.065 103.161 126.665  0.00  0.00    +0.000 C 
ATOM      2  C   UNL     1     102.198 104.407 128.590  0.00  0.00    +0.000 C 
ATOM      3  C   UNL     1     100.823 105.033 128.886  0.00  0.00    +0.000 C 
ATOM      4  C   UNL     1      99.908 105.046 127.660  0.00  0.00    +0.000 C 
ATOM      5  C   UNL     1     102.052 103.079 127.831  0.00  0.00    +0.000 C 
ATOM      6  N   UNL     1      99.766 103.676 127.123  0.00  0.00    +0.000 N 
ATOM      7  H   UNL     1      99.428 103.085 127.883  0.00  0.00    +0.000 HD
ENDROOT
BRANCH   2   9
ATOM      8  C   UNL     1     102.412 104.308 131.090  0.00  0.00    +0.000 C 
ATOM      9  N   UNL     1     103.049 104.301 129.804  0.00  0.00    +0.000 N 
ATOM     10  O   UNL     1     101.335 103.771 131.260  0.00  0.00    +0.000 OA
BRANCH   9  11
ATOM     11  C   UNL     1     104.530 104.168 129.687  0.00  0.00    +0.000 A 
ATOM     12  C   UNL     1     105.133 105.037 128.780  0.00  0.00    +0.000 A 
ATOM     13  C   UNL     1     106.501 105.028 128.566  0.00  0.00    +0.000 A 
ATOM     14  C   UNL     1     106.714 103.261 130.175  0.00  0.00    +0.000 A 
ATOM     15  C   UNL     1     107.290 104.135 129.268  0.00  0.00    +0.000 A 
ATOM     16  C   UNL     1     105.341 103.282 130.378  0.00  0.00    +0.000 A 
ENDBRANCH   9  11
BRANCH   8  17
ATOM     17  C   UNL     1     103.015 104.972 132.342  0.00  0.00    +0.000 C 
ATOM     18  C   UNL     1     102.026 105.999 132.930  0.00  0.00    +0.000 C 
ENDBRANCH   8  17
ENDBRANCH   2   9
BRANCH   6  19
ATOM     19  C   UNL     1      98.769 103.609 126.040  0.00  0.00    +0.000 C 
BRANCH  19  20
ATOM     20  C   UNL     1      97.565 104.510 126.297  0.00  0.00    +0.000 C 
BRANCH  20  23
ATOM     21  C   UNL     1      95.454 103.133 126.205  0.00  0.00    +0.000 A 
ATOM     22  C   UNL     1      94.479 102.265 128.198  0.00  0.00    +0.000 A 
ATOM     23  C   UNL     1      96.455 103.703 126.974  0.00  0.00    +0.000 A 
ATOM     24  C   UNL     1      94.460 102.407 126.827  0.00  0.00    +0.000 A 
ATOM     25  C   UNL     1      95.467 102.828 128.967  0.00  0.00    +0.000 A 
ATOM     26  C   UNL     1      96.465 103.556 128.348  0.00  0.00    +0.000 A 
ENDBRANCH  20  23
ENDBRANCH  19  20
ENDBRANCH   6  19
TORSDOF 6
ENDMDL
MODEL 17
REMARK minimizedAffinity -6.59846783
REMARK minimizedRMSD -1
REMARK  Name = 04_docking/output/fentanyl.pdb
REMARK  7 active torsions:
REMARK  status: ('A' for Active; 'I' for Inactive)
REMARK    1  A    between atoms: C_2  and  C_16
REMARK    2  A    between atoms: C_2  and  C_17
REMARK    3  A    between atoms: C_5  and  N_23
REMARK    4  A    between atoms: C_9  and  C_10
REMARK    5  A    between atoms: C_10  and  C_11
REMARK    6  A    between atoms: C_12  and  N_23
REMARK    7  A    between atoms: C_16  and  N_24
REMARK                            x       y       z     vdW  Elec       q    Type
REMARK                         _______ _______ _______ _____ _____    ______ ____
ROOT
ATOM      1  C   UNL     1     100.131 104.535 127.225  0.00  0.00    +0.000 C 
ATOM      2  C   UNL     1     101.855 104.245 129.092  0.00  0.00    +0.000 C 
ATOM      3  C   UNL     1     102.643 103.354 128.114  0.00  0.00    +0.000 C 
ATOM      4  C   UNL     1     101.754 102.744 127.029  0.00  0.00    +0.000 C 
ATOM      5  C   UNL     1     100.930 105.213 128.339  0.00  0.00    +0.000 C 
ATOM      6  N   UNL     1     101.029 103.813 126.311  0.00  0.00    +0.000 N 
ATOM      7  H   UNL     1     101.727 104.466 125.953  0.00  0.00    +0.000 HD
ENDROOT
BRANCH   2   9
ATOM      8  C   UNL     1     104.065 105.276 129.688  0.00  0.00    +0.000 C 
ATOM      9  N   UNL     1     102.733 104.918 130.083  0.00  0.00    +0.000 N 
ATOM     10  O   UNL     1     104.304 105.656 128.559  0.00  0.00    +0.000 OA
BRANCH   9  11
ATOM     11  C   UNL     1     102.232 105.238 131.452  0.00  0.00    +0.000 A 
ATOM     12  C   UNL     1     101.490 104.229 132.061  0.00  0.00    +0.000 A 
ATOM     13  C   UNL     1     100.961 104.383 133.331  0.00  0.00    +0.000 A 
ATOM     14  C   UNL     1     101.908 106.586 133.429  0.00  0.00    +0.000 A 
ATOM     15  C   UNL     1     101.173 105.567 134.014  0.00  0.00    +0.000 A 
ATOM     16  C   UNL     1     102.431 106.415 132.155  0.00  0.00    +0.000 A 
ENDBRANCH   9  11
BRANCH   8  17
ATOM     17  C   UNL     1     105.284 105.216 130.628  0.00  0.00    +0.000 C 
ATOM     18  C   UNL     1     105.900 103.803 130.616  0.00  0.00    +0.000 C 
ENDBRANCH   8  17
ENDBRANCH   2   9
BRANCH   6  19
ATOM     19  C   UNL     1     100.283 103.292 125.153  0.00  0.00    +0.000 C 
BRANCH  19  20
ATOM     20  C   UNL     1     100.809 103.833 123.826  0.00  0.00    +0.000 C 
BRANCH  20  23
ATOM     21  C   UNL     1     101.381 101.891 122.322  0.00  0.00    +0.000 A 
ATOM     22  C   UNL     1     103.617 101.079 122.178  0.00  0.00    +0.000 A 
ATOM     23  C   UNL     1     101.813 102.843 123.231  0.00  0.00    +0.000 A 
ATOM     24  C   UNL     1     102.296 101.005 121.792  0.00  0.00    +0.000 A 
ATOM     25  C   UNL     1     104.051 102.019 123.080  0.00  0.00    +0.000 A 
ATOM     26  C   UNL     1     103.138 102.909 123.613  0.00  0.00    +0.000 A 
ENDBRANCH  20  23
ENDBRANCH  19  20
ENDBRANCH   6  19
TORSDOF 6
ENDMDL
MODEL 18
REMARK minimizedAffinity -6.59620428
REMARK minimizedRMSD -1
REMARK  Name = 04_docking/output/fentanyl.pdb
REMARK  7 active torsions:
REMARK  status: ('A' for Active; 'I' for Inactive)
REMARK    1  A    between atoms: C_2  and  C_16
REMARK    2  A    between atoms: C_2  and  C_17
REMARK    3  A    between atoms: C_5  and  N_23
REMARK    4  A    between atoms: C_9  and  C_10
REMARK    5  A    between atoms: C_10  and  C_11
REMARK    6  A    between atoms: C_12  and  N_23
REMARK    7  A    between atoms: C_16  and  N_24
REMARK                            x       y       z     vdW  Elec       q    Type
REMARK                         _______ _______ _______ _____ _____    ______ ____
ROOT
ATOM      1  C   UNL     1      99.923 104.736 128.017  0.00  0.00    +0.000 C 
ATOM      2  C   UNL     1     101.794 103.869 129.529  0.00  0.00    +0.000 C 
ATOM      3  C   UNL     1     102.470 103.339 128.252  0.00  0.00    +0.000 C 
ATOM      4  C   UNL     1     101.474 103.106 127.114  0.00  0.00    +0.000 C 
ATOM      5  C   UNL     1     100.834 105.025 129.212  0.00  0.00    +0.000 C 
ATOM      6  N   UNL     1     100.718 104.347 126.843  0.00  0.00    +0.000 N 
ATOM      7  H   UNL     1     101.399 105.082 126.650  0.00  0.00    +0.000 HD
ENDROOT
BRANCH   2   9
ATOM      8  C   UNL     1     102.324 104.188 131.963  0.00  0.00    +0.000 C 
ATOM      9  N   UNL     1     102.773 104.192 130.599  0.00  0.00    +0.000 N 
ATOM     10  O   UNL     1     101.498 103.384 132.349  0.00  0.00    +0.000 OA
BRANCH   9  11
ATOM     11  C   UNL     1     104.196 104.491 130.266  0.00  0.00    +0.000 A 
ATOM     12  C   UNL     1     105.095 103.461 130.534  0.00  0.00    +0.000 A 
ATOM     13  C   UNL     1     106.449 103.594 130.276  0.00  0.00    +0.000 A 
ATOM     14  C   UNL     1     106.048 105.818 129.467  0.00  0.00    +0.000 A 
ATOM     15  C   UNL     1     106.922 104.778 129.741  0.00  0.00    +0.000 A 
ATOM     16  C   UNL     1     104.694 105.668 129.731  0.00  0.00    +0.000 A 
ENDBRANCH   9  11
BRANCH   8  17
ATOM     17  C   UNL     1     102.831 105.170 133.035  0.00  0.00    +0.000 C 
ATOM     18  C   UNL     1     101.648 105.932 133.665  0.00  0.00    +0.000 C 
ENDBRANCH   8  17
ENDBRANCH   2   9
BRANCH   6  19
ATOM     19  C   UNL     1      99.860 104.221 125.652  0.00  0.00    +0.000 C 
BRANCH  19  20
ATOM     20  C   UNL     1      98.455 103.734 125.993  0.00  0.00    +0.000 C 
BRANCH  20  23
ATOM     21  C   UNL     1      98.946 102.119 124.119  0.00  0.00    +0.000 A 
ATOM     22  C   UNL     1      97.576 100.200 123.775  0.00  0.00    +0.000 A 
ATOM     23  C   UNL     1      98.144 102.466 125.194  0.00  0.00    +0.000 A 
ATOM     24  C   UNL     1      98.656 100.973 123.408  0.00  0.00    +0.000 A 
ATOM     25  C   UNL     1      96.776 100.539 124.839  0.00  0.00    +0.000 A 
ATOM     26  C   UNL     1      97.063 101.686 125.555  0.00  0.00    +0.000 A 
ENDBRANCH  20  23
ENDBRANCH  19  20
ENDBRANCH   6  19
TORSDOF 6
ENDMDL
MODEL 19
REMARK minimizedAffinity -6.54754448
REMARK minimizedRMSD -1
REMARK  Name = 04_docking/output/fentanyl.pdb
REMARK  7 active torsions:
REMARK  status: ('A' for Active; 'I' for Inactive)
REMARK    1  A    between atoms: C_2  and  C_16
REMARK    2  A    between atoms: C_2  and  C_17
REMARK    3  A    between atoms: C_5  and  N_23
REMARK    4  A    between atoms: C_9  and  C_10
REMARK    5  A    between atoms: C_10  and  C_11
REMARK    6  A    between atoms: C_12  and  N_23
REMARK    7  A    between atoms: C_16  and  N_24
REMARK                            x       y       z     vdW  Elec       q    Type
REMARK                         _______ _______ _______ _____ _____    ______ ____
ROOT
ATOM      1  C   UNL     1      99.946 104.501 127.938  0.00  0.00    +0.000 C 
ATOM      2  C   UNL     1     101.876 103.737 129.433  0.00  0.00    +0.000 C 
ATOM      3  C   UNL     1     102.555 103.219 128.153  0.00  0.00    +0.000 C 
ATOM      4  C   UNL     1     101.553 102.926 127.034  0.00  0.00    +0.000 C 
ATOM      5  C   UNL     1     100.861 104.845 129.115  0.00  0.00    +0.000 C 
ATOM      6  N   UNL     1     100.740 104.130 126.757  0.00  0.00    +0.000 N 
ATOM      7  H   UNL     1     101.386 104.890 126.544  0.00  0.00    +0.000 HD
ENDROOT
BRANCH   2   9
ATOM      8  C   UNL     1     102.412 104.166 131.848  0.00  0.00    +0.000 C 
ATOM      9  N   UNL     1     102.855 104.117 130.484  0.00  0.00    +0.000 N 
ATOM     10  O   UNL     1     101.598 103.369 132.272  0.00  0.00    +0.000 OA
BRANCH   9  11
ATOM     11  C   UNL     1     104.273 104.419 130.131  0.00  0.00    +0.000 A 
ATOM     12  C   UNL     1     105.191 103.429 130.474  0.00  0.00    +0.000 A 
ATOM     13  C   UNL     1     106.543 103.570 130.208  0.00  0.00    +0.000 A 
ATOM     14  C   UNL     1     106.100 105.721 129.240  0.00  0.00    +0.000 A 
ATOM     15  C   UNL     1     106.994 104.721 129.589  0.00  0.00    +0.000 A 
ATOM     16  C   UNL     1     104.749 105.564 129.513  0.00  0.00    +0.000 A 
ENDBRANCH   9  11
BRANCH   8  17
ATOM     17  C   UNL     1     102.911 105.199 132.876  0.00  0.00    +0.000 C 
ATOM     18  C   UNL     1     101.723 105.989 133.460  0.00  0.00    +0.000 C 
ENDBRANCH   8  17
ENDBRANCH   2   9
BRANCH   6  19
ATOM     19  C   UNL     1      99.871 103.950 125.581  0.00  0.00    +0.000 C 
BRANCH  19  20
ATOM     20  C   UNL     1     100.448 104.594 124.324  0.00  0.00    +0.000 C 
BRANCH  20  23
ATOM     21  C   UNL     1     102.201 106.403 124.458  0.00  0.00    +0.000 A 
ATOM     22  C   UNL     1     101.634 108.596 125.198  0.00  0.00    +0.000 A 
ATOM     23  C   UNL     1     100.879 106.029 124.636  0.00  0.00    +0.000 A 
ATOM     24  C   UNL     1     102.576 107.699 124.741  0.00  0.00    +0.000 A 
ATOM     25  C   UNL     1     100.322 108.232 125.378  0.00  0.00    +0.000 A 
ATOM     26  C   UNL     1      99.942 106.934 125.095  0.00  0.00    +0.000 A 
ENDBRANCH  20  23
ENDBRANCH  19  20
ENDBRANCH   6  19
TORSDOF 6
ENDMDL
MODEL 20
REMARK minimizedAffinity -6.51319361
REMARK minimizedRMSD -1
REMARK  Name = 04_docking/output/fentanyl.pdb
REMARK  7 active torsions:
REMARK  status: ('A' for Active; 'I' for Inactive)
REMARK    1  A    between atoms: C_2  and  C_16
REMARK    2  A    between atoms: C_2  and  C_17
REMARK    3  A    between atoms: C_5  and  N_23
REMARK    4  A    between atoms: C_9  and  C_10
REMARK    5  A    between atoms: C_10  and  C_11
REMARK    6  A    between atoms: C_12  and  N_23
REMARK    7  A    between atoms: C_16  and  N_24
REMARK                            x       y       z     vdW  Elec       q    Type
REMARK                         _______ _______ _______ _____ _____    ______ ____
ROOT
ATOM      1  C   UNL     1      95.817 102.559 123.435  0.00  0.00    +0.000 C 
ATOM      2  C   UNL     1      97.205 100.777 122.235  0.00  0.00    +0.000 C 
ATOM      3  C   UNL     1      98.221 100.913 123.383  0.00  0.00    +0.000 C 
ATOM      4  C   UNL     1      98.134 102.267 124.088  0.00  0.00    +0.000 C 
ATOM      5  C   UNL     1      95.805 101.231 122.675  0.00  0.00    +0.000 C 
ATOM      6  N   UNL     1      96.754 102.499 124.566  0.00  0.00    +0.000 N 
ATOM      7  H   UNL     1      96.502 101.708 125.160  0.00  0.00    +0.000 HD
ENDROOT
BRANCH   2   9
ATOM      8  C   UNL     1      96.863  99.301 120.232  0.00  0.00    +0.000 C 
ATOM      9  N   UNL     1      97.220  99.426 121.617  0.00  0.00    +0.000 N 
ATOM     10  O   UNL     1      97.169 100.158 119.426  0.00  0.00    +0.000 OA
BRANCH   9  11
ATOM     11  C   UNL     1      97.620  98.229 122.412  0.00  0.00    +0.000 A 
ATOM     12  C   UNL     1      96.598  97.643 123.155  0.00  0.00    +0.000 A 
ATOM     13  C   UNL     1      96.821  96.525 123.941  0.00  0.00    +0.000 A 
ATOM     14  C   UNL     1      99.123  96.540 123.260  0.00  0.00    +0.000 A 
ATOM     15  C   UNL     1      98.089  95.975 123.990  0.00  0.00    +0.000 A 
ATOM     16  C   UNL     1      98.882  97.660 122.478  0.00  0.00    +0.000 A 
ENDBRANCH   9  11
BRANCH   8  17
ATOM     17  C   UNL     1      96.083  98.107 119.652  0.00  0.00    +0.000 C 
ATOM     18  C   UNL     1      97.057  97.077 119.045  0.00  0.00    +0.000 C 
ENDBRANCH   8  17
ENDBRANCH   2   9
BRANCH   6  19
ATOM     19  C   UNL     1      96.653 103.716 125.391  0.00  0.00    +0.000 C 
BRANCH  19  20
ATOM     20  C   UNL     1      97.132 103.493 126.822  0.00  0.00    +0.000 C 
BRANCH  20  23
ATOM     21  C   UNL     1      94.846 102.495 127.192  0.00  0.00    +0.000 A 
ATOM     22  C   UNL     1      93.803 102.601 129.332  0.00  0.00    +0.000 A 
ATOM     23  C   UNL     1      95.935 103.170 127.719  0.00  0.00    +0.000 A 
ATOM     24  C   UNL     1      93.774 102.209 128.011  0.00  0.00    +0.000 A 
ATOM     25  C   UNL     1      94.878 103.272 129.860  0.00  0.00    +0.000 A 
ATOM     26  C   UNL     1      95.955 103.560 129.044  0.00  0.00    +0.000 A 
ENDBRANCH  20  23
ENDBRANCH  19  20
ENDBRANCH   6  19
TORSDOF 6
ENDMDL
