REMARK minimizedAffinity -6.55989885
REMARK minimizedRMSD -1
REMARK  Name = 04_docking/output/fentanyl.pdb
REMARK  7 active torsions:
REMARK  status: ('A' for Active; 'I' for Inactive)
REMARK    1  A    between atoms: C_2  and  C_16
REMARK    2  A    between atoms: C_2  and  C_17
REMARK    3  A    between atoms: C_5  and  N_23
REMARK    4  A    between atoms: C_9  and  C_10
REMARK    5  A    between atoms: C_10  and  C_11
REMARK    6  A    between atoms: C_12  and  N_23
REMARK    7  A    between atoms: C_16  and  N_24
REMARK                            x       y       z     vdW  Elec       q    Type
REMARK                         _______ _______ _______ _____ _____    ______ ____
ROOT
ATOM      1  C   UNL     1     100.600 101.999 125.553  0.00  0.00    +0.000 C 
ATOM      2  C   UNL     1      98.315 103.021 126.077  0.00  0.00    +0.000 C 
ATOM      3  C   UNL     1      99.072 104.292 126.503  0.00  0.00    +0.000 C 
ATOM      4  C   UNL     1     100.517 104.004 126.913  0.00  0.00    +0.000 C 
ATOM      5  C   UNL     1      99.149 102.178 125.101  0.00  0.00    +0.000 C 
ATOM      6  N   UNL     1     101.223 103.304 125.819  0.00  0.00    +0.000 N 
ATOM      7  H   UNL     1     101.140 103.883 124.984  0.00  0.00    +0.000 HD
ENDROOT
BRANCH   2   9
ATOM      8  C   UNL     1      96.787 104.273 124.526  0.00  0.00    +0.000 C 
ATOM      9  N   UNL     1      96.945 103.314 125.582  0.00  0.00    +0.000 N 
ATOM     10  O   UNL     1      97.608 104.364 123.633  0.00  0.00    +0.000 OA
BRANCH   9  11
ATOM     11  C   UNL     1      95.761 102.607 126.152  0.00  0.00    +0.000 A 
ATOM     12  C   UNL     1      94.820 102.180 125.218  0.00  0.00    +0.000 A 
ATOM     13  C   UNL     1      93.670 101.510 125.601  0.00  0.00    +0.000 A 
ATOM     14  C   UNL     1      94.368 101.676 127.891  0.00  0.00    +0.000 A 
ATOM     15  C   UNL     1      93.448 101.260 126.943  0.00  0.00    +0.000 A 
ATOM     16  C   UNL     1      95.516 102.345 127.491  0.00  0.00    +0.000 A 
ENDBRANCH   9  11
BRANCH   8  17
ATOM     17  C   UNL     1      95.601 105.250 124.424  0.00  0.00    +0.000 C 
ATOM     18  C   UNL     1      96.062 106.590 123.818  0.00  0.00    +0.000 C 
ENDBRANCH   8  17
ENDBRANCH   2   9
BRANCH   6  19
ATOM     19  C   UNL     1     102.660 103.146 126.101  0.00  0.00    +0.000 C 
BRANCH  19  20
ATOM     20  C   UNL     1     103.535 103.527 124.911  0.00  0.00    +0.000 C 
BRANCH  20  23
ATOM     21  C   UNL     1     105.289 101.719 124.777  0.00  0.00    +0.000 A 
ATOM     22  C   UNL     1     105.144 100.003 123.131  0.00  0.00    +0.000 A 
ATOM     23  C   UNL     1     104.116 102.262 124.276  0.00  0.00    +0.000 A 
ATOM     24  C   UNL     1     105.802 100.579 124.197  0.00  0.00    +0.000 A 
ATOM     25  C   UNL     1     103.983 100.536 122.628  0.00  0.00    +0.000 A 
ATOM     26  C   UNL     1     103.465 101.679 123.207  0.00  0.00    +0.000 A 
ENDBRANCH  20  23
ENDBRANCH  19  20
ENDBRANCH   6  19
TORSDOF 6
