REMARK minimizedAffinity -6.8555851
REMARK minimizedRMSD -1
REMARK  Name = 04_docking/output/fentanyl.pdb
REMARK  7 active torsions:
REMARK  status: ('A' for Active; 'I' for Inactive)
REMARK    1  A    between atoms: C_2  and  C_16
REMARK    2  A    between atoms: C_2  and  C_17
REMARK    3  A    between atoms: C_5  and  N_23
REMARK    4  A    between atoms: C_9  and  C_10
REMARK    5  A    between atoms: C_10  and  C_11
REMARK    6  A    between atoms: C_12  and  N_23
REMARK    7  A    between atoms: C_16  and  N_24
REMARK                            x       y       z     vdW  Elec       q    Type
REMARK                         _______ _______ _______ _____ _____    ______ ____
ROOT
ATOM      1  C   UNL     1      99.225 104.413 127.083  0.00  0.00    +0.000 C 
ATOM      2  C   UNL     1     101.717 104.008 127.490  0.00  0.00    +0.000 C 
ATOM      3  C   UNL     1     101.726 103.236 126.158  0.00  0.00    +0.000 C 
ATOM      4  C   UNL     1     100.344 102.700 125.782  0.00  0.00    +0.000 C 
ATOM      5  C   UNL     1     100.556 105.011 127.544  0.00  0.00    +0.000 C 
ATOM      6  N   UNL     1      99.364 103.807 125.751  0.00  0.00    +0.000 N 
ATOM      7  H   UNL     1      99.722 104.511 125.106  0.00  0.00    +0.000 HD
ENDROOT
BRANCH   2   9
ATOM      8  C   UNL     1     103.798 105.194 126.735  0.00  0.00    +0.000 C 
ATOM      9  N   UNL     1     103.036 104.616 127.805  0.00  0.00    +0.000 N 
ATOM     10  O   UNL     1     103.251 105.778 125.819  0.00  0.00    +0.000 OA
BRANCH   9  11
ATOM     11  C   UNL     1     103.546 104.646 129.207  0.00  0.00    +0.000 A 
ATOM     12  C   UNL     1     103.392 105.863 129.867  0.00  0.00    +0.000 A 
ATOM     13  C   UNL     1     103.818 106.040 131.172  0.00  0.00    +0.000 A 
ATOM     14  C   UNL     1     104.579 103.765 131.204  0.00  0.00    +0.000 A 
ATOM     15  C   UNL     1     104.413 104.985 131.839  0.00  0.00    +0.000 A 
ATOM     16  C   UNL     1     104.146 103.604 129.895  0.00  0.00    +0.000 A 
ENDBRANCH   9  11
BRANCH   8  17
ATOM     17  C   UNL     1     105.335 105.134 126.646  0.00  0.00    +0.000 C 
ATOM     18  C   UNL     1     105.767 104.217 125.485  0.00  0.00    +0.000 C 
ENDBRANCH   8  17
ENDBRANCH   2   9
BRANCH   6  19
ATOM     19  C   UNL     1      98.054 103.369 125.239  0.00  0.00    +0.000 C 
BRANCH  19  20
ATOM     20  C   UNL     1      97.723 101.933 125.632  0.00  0.00    +0.000 C 
BRANCH  20  23
ATOM     21  C   UNL     1      96.057 101.926 127.526  0.00  0.00    +0.000 A 
ATOM     22  C   UNL     1      93.721 101.739 127.093  0.00  0.00    +0.000 A 
ATOM     23  C   UNL     1      96.288 101.865 126.161  0.00  0.00    +0.000 A 
ATOM     24  C   UNL     1      94.760 101.864 127.990  0.00  0.00    +0.000 A 
ATOM     25  C   UNL     1      93.943 101.677 125.739  0.00  0.00    +0.000 A 
ATOM     26  C   UNL     1      95.242 101.739 125.269  0.00  0.00    +0.000 A 
ENDBRANCH  20  23
ENDBRANCH  19  20
ENDBRANCH   6  19
TORSDOF 6
