REMARK minimizedAffinity -6.86330795
REMARK minimizedRMSD -1
REMARK  Name = 04_docking/output/fentanyl.pdb
REMARK  7 active torsions:
REMARK  status: ('A' for Active; 'I' for Inactive)
REMARK    1  A    between atoms: C_2  and  C_16
REMARK    2  A    between atoms: C_2  and  C_17
REMARK    3  A    between atoms: C_5  and  N_23
REMARK    4  A    between atoms: C_9  and  C_10
REMARK    5  A    between atoms: C_10  and  C_11
REMARK    6  A    between atoms: C_12  and  N_23
REMARK    7  A    between atoms: C_16  and  N_24
REMARK                            x       y       z     vdW  Elec       q    Type
REMARK                         _______ _______ _______ _____ _____    ______ ____
ROOT
ATOM      1  C   UNL     1     101.036 103.380 126.367  0.00  0.00    +0.000 C 
ATOM      2  C   UNL     1     100.535 105.675 125.353  0.00  0.00    +0.000 C 
ATOM      3  C   UNL     1     102.058 105.896 125.308  0.00  0.00    +0.000 C 
ATOM      4  C   UNL     1     102.806 105.036 126.328  0.00  0.00    +0.000 C 
ATOM      5  C   UNL     1     100.192 104.178 125.370  0.00  0.00    +0.000 C 
ATOM      6  N   UNL     1     102.469 103.611 126.131  0.00  0.00    +0.000 N 
ATOM      7  H   UNL     1     102.683 103.379 125.160  0.00  0.00    +0.000 HD
ENDROOT
BRANCH   2   9
ATOM      8  C   UNL     1     100.076 106.105 122.922  0.00  0.00    +0.000 C 
ATOM      9  N   UNL     1      99.818 106.432 124.296  0.00  0.00    +0.000 N 
ATOM     10  O   UNL     1     100.283 104.957 122.579  0.00  0.00    +0.000 OA
BRANCH   9  11
ATOM     11  C   UNL     1      98.832 107.494 124.654  0.00  0.00    +0.000 A 
ATOM     12  C   UNL     1      99.322 108.502 125.480  0.00  0.00    +0.000 A 
ATOM     13  C   UNL     1      98.522 109.553 125.894  0.00  0.00    +0.000 A 
ATOM     14  C   UNL     1      96.692 108.613 124.659  0.00  0.00    +0.000 A 
ATOM     15  C   UNL     1      97.204 109.605 125.480  0.00  0.00    +0.000 A 
ATOM     16  C   UNL     1      97.507 107.566 124.252  0.00  0.00    +0.000 A 
ENDBRANCH   9  11
BRANCH   8  17
ATOM     17  C   UNL     1     100.114 107.144 121.786  0.00  0.00    +0.000 C 
ATOM     18  C   UNL     1     101.338 108.067 121.946  0.00  0.00    +0.000 C 
ENDBRANCH   8  17
ENDBRANCH   2   9
BRANCH   6  19
ATOM     19  C   UNL     1     103.285 102.728 126.982  0.00  0.00    +0.000 C 
BRANCH  19  20
ATOM     20  C   UNL     1     102.533 102.253 128.222  0.00  0.00    +0.000 C 
BRANCH  20  23
ATOM     21  C   UNL     1     102.166 103.376 130.450  0.00  0.00    +0.000 A 
ATOM     22  C   UNL     1     103.990 104.336 131.645  0.00  0.00    +0.000 A 
ATOM     23  C   UNL     1     103.051 103.000 129.453  0.00  0.00    +0.000 A 
ATOM     24  C   UNL     1     102.645 104.048 131.555  0.00  0.00    +0.000 A 
ATOM     25  C   UNL     1     104.873 103.968 130.659  0.00  0.00    +0.000 A 
ATOM     26  C   UNL     1     104.397 103.294 129.550  0.00  0.00    +0.000 A 
ENDBRANCH  20  23
ENDBRANCH  19  20
ENDBRANCH   6  19
TORSDOF 6
