REMARK minimizedAffinity -6.32285976
REMARK minimizedRMSD -1
REMARK  Name = 04_docking/output/fentanyl.pdb
REMARK  7 active torsions:
REMARK  status: ('A' for Active; 'I' for Inactive)
REMARK    1  A    between atoms: C_2  and  C_16
REMARK    2  A    between atoms: C_2  and  C_17
REMARK    3  A    between atoms: C_5  and  N_23
REMARK    4  A    between atoms: C_9  and  C_10
REMARK    5  A    between atoms: C_10  and  C_11
REMARK    6  A    between atoms: C_12  and  N_23
REMARK    7  A    between atoms: C_16  and  N_24
REMARK                            x       y       z     vdW  Elec       q    Type
REMARK                         _______ _______ _______ _____ _____    ______ ____
ROOT
ATOM      1  C   UNL     1      99.884 101.920 125.452  0.00  0.00    +0.000 C 
ATOM      2  C   UNL     1     101.702 103.255 124.248  0.00  0.00    +0.000 C 
ATOM      3  C   UNL     1     100.631 103.616 123.203  0.00  0.00    +0.000 C 
ATOM      4  C   UNL     1      99.489 102.599 123.159  0.00  0.00    +0.000 C 
ATOM      5  C   UNL     1     101.063 102.885 125.594  0.00  0.00    +0.000 C 
ATOM      6  N   UNL     1      98.894 102.449 124.503  0.00  0.00    +0.000 N 
ATOM      7  H   UNL     1      98.606 103.378 124.813  0.00  0.00    +0.000 HD
ENDROOT
BRANCH   2   9
ATOM      8  C   UNL     1     104.113 103.874 124.583  0.00  0.00    +0.000 C 
ATOM      9  N   UNL     1     102.758 104.294 124.363  0.00  0.00    +0.000 N 
ATOM     10  O   UNL     1     104.546 102.861 124.071  0.00  0.00    +0.000 OA
BRANCH   9  11
ATOM     11  C   UNL     1     102.421 105.742 124.230  0.00  0.00    +0.000 A 
ATOM     12  C   UNL     1     102.736 106.311 122.998  0.00  0.00    +0.000 A 
ATOM     13  C   UNL     1     102.481 107.645 122.730  0.00  0.00    +0.000 A 
ATOM     14  C   UNL     1     101.579 107.891 124.940  0.00  0.00    +0.000 A 
ATOM     15  C   UNL     1     101.900 108.434 123.706  0.00  0.00    +0.000 A 
ATOM     16  C   UNL     1     101.841 106.552 125.193  0.00  0.00    +0.000 A 
ENDBRANCH   9  11
BRANCH   8  17
ATOM     17  C   UNL     1     105.118 104.643 125.461  0.00  0.00    +0.000 C 
ATOM     18  C   UNL     1     104.758 104.483 126.951  0.00  0.00    +0.000 C 
ENDBRANCH   8  17
ENDBRANCH   2   9
BRANCH   6  19
ATOM     19  C   UNL     1      97.688 101.603 124.482  0.00  0.00    +0.000 C 
BRANCH  19  20
ATOM     20  C   UNL     1      96.401 102.419 124.425  0.00  0.00    +0.000 C 
BRANCH  20  23
ATOM     21  C   UNL     1      94.225 101.715 125.489  0.00  0.00    +0.000 A 
ATOM     22  C   UNL     1      94.021 101.561 127.857  0.00  0.00    +0.000 A 
ATOM     23  C   UNL     1      95.543 102.109 125.654  0.00  0.00    +0.000 A 
ATOM     24  C   UNL     1      93.462 101.438 126.604  0.00  0.00    +0.000 A 
ATOM     25  C   UNL     1      95.326 101.953 128.029  0.00  0.00    +0.000 A 
ATOM     26  C   UNL     1      96.094 102.231 126.914  0.00  0.00    +0.000 A 
ENDBRANCH  20  23
ENDBRANCH  19  20
ENDBRANCH   6  19
TORSDOF 6
