REMARK minimizedAffinity -6.42490387
REMARK minimizedRMSD -1
REMARK  Name = 04_docking/output/fentanyl.pdb
REMARK  7 active torsions:
REMARK  status: ('A' for Active; 'I' for Inactive)
REMARK    1  A    between atoms: C_2  and  C_16
REMARK    2  A    between atoms: C_2  and  C_17
REMARK    3  A    between atoms: C_5  and  N_23
REMARK    4  A    between atoms: C_9  and  C_10
REMARK    5  A    between atoms: C_10  and  C_11
REMARK    6  A    between atoms: C_12  and  N_23
REMARK    7  A    between atoms: C_16  and  N_24
REMARK                            x       y       z     vdW  Elec       q    Type
REMARK                         _______ _______ _______ _____ _____    ______ ____
ROOT
ATOM      1  C   UNL     1      99.818 102.110 125.812  0.00  0.00    +0.000 C 
ATOM      2  C   UNL     1     101.854 103.180 124.693  0.00  0.00    +0.000 C 
ATOM      3  C   UNL     1     100.994 103.291 123.421  0.00  0.00    +0.000 C 
ATOM      4  C   UNL     1      99.854 102.272 123.393  0.00  0.00    +0.000 C 
ATOM      5  C   UNL     1     100.977 103.099 125.951  0.00  0.00    +0.000 C 
ATOM      6  N   UNL     1      99.025 102.408 124.610  0.00  0.00    +0.000 N 
ATOM      7  H   UNL     1      98.711 103.378 124.657  0.00  0.00    +0.000 HD
ENDROOT
BRANCH   2   9
ATOM      8  C   UNL     1     104.226 103.857 125.161  0.00  0.00    +0.000 C 
ATOM      9  N   UNL     1     102.898 104.234 124.769  0.00  0.00    +0.000 N 
ATOM     10  O   UNL     1     104.701 102.790 124.823  0.00  0.00    +0.000 OA
BRANCH   9  11
ATOM     11  C   UNL     1     102.579 105.650 124.422  0.00  0.00    +0.000 A 
ATOM     12  C   UNL     1     102.981 106.052 123.150  0.00  0.00    +0.000 A 
ATOM     13  C   UNL     1     102.752 107.338 122.690  0.00  0.00    +0.000 A 
ATOM     14  C   UNL     1     101.701 107.870 124.781  0.00  0.00    +0.000 A 
ATOM     15  C   UNL     1     102.110 108.247 123.512  0.00  0.00    +0.000 A 
ATOM     16  C   UNL     1     101.938 106.578 125.227  0.00  0.00    +0.000 A 
ENDBRANCH   9  11
BRANCH   8  17
ATOM     17  C   UNL     1     105.150 104.740 126.020  0.00  0.00    +0.000 C 
ATOM     18  C   UNL     1     106.510 104.932 125.318  0.00  0.00    +0.000 C 
ENDBRANCH   8  17
ENDBRANCH   2   9
BRANCH   6  19
ATOM     19  C   UNL     1      97.822 101.560 124.556  0.00  0.00    +0.000 C 
BRANCH  19  20
ATOM     20  C   UNL     1      96.537 102.374 124.438  0.00  0.00    +0.000 C 
BRANCH  20  23
ATOM     21  C   UNL     1      96.147 102.219 126.925  0.00  0.00    +0.000 A 
ATOM     22  C   UNL     1      94.020 101.577 127.786  0.00  0.00    +0.000 A 
ATOM     23  C   UNL     1      95.638 102.090 125.643  0.00  0.00    +0.000 A 
ATOM     24  C   UNL     1      95.326 101.961 128.002  0.00  0.00    +0.000 A 
ATOM     25  C   UNL     1      93.509 101.445 126.518  0.00  0.00    +0.000 A 
ATOM     26  C   UNL     1      94.328 101.703 125.435  0.00  0.00    +0.000 A 
ENDBRANCH  20  23
ENDBRANCH  19  20
ENDBRANCH   6  19
TORSDOF 6
