REMARK minimizedAffinity -6.27235699
REMARK minimizedRMSD -1
REMARK  Name = 04_docking/output/fentanyl.pdb
REMARK  7 active torsions:
REMARK  status: ('A' for Active; 'I' for Inactive)
REMARK    1  A    between atoms: C_2  and  C_16
REMARK    2  A    between atoms: C_2  and  C_17
REMARK    3  A    between atoms: C_5  and  N_23
REMARK    4  A    between atoms: C_9  and  C_10
REMARK    5  A    between atoms: C_10  and  C_11
REMARK    6  A    between atoms: C_12  and  N_23
REMARK    7  A    between atoms: C_16  and  N_24
REMARK                            x       y       z     vdW  Elec       q    Type
REMARK                         _______ _______ _______ _____ _____    ______ ____
ROOT
ATOM      1  C   UNL     1     100.603 102.858 125.285  0.00  0.00    +0.000 C 
ATOM      2  C   UNL     1     101.604 104.568 126.902  0.00  0.00    +0.000 C 
ATOM      3  C   UNL     1     100.216 104.631 127.566  0.00  0.00    +0.000 C 
ATOM      4  C   UNL     1      99.093 104.208 126.618  0.00  0.00    +0.000 C 
ATOM      5  C   UNL     1     101.802 103.242 126.154  0.00  0.00    +0.000 C 
ATOM      6  N   UNL     1      99.367 102.857 126.082  0.00  0.00    +0.000 N 
ATOM      7  H   UNL     1      99.491 102.233 126.879  0.00  0.00    +0.000 HD
ENDROOT
BRANCH   2   9
ATOM      8  C   UNL     1     103.926 105.422 127.328  0.00  0.00    +0.000 C 
ATOM      9  N   UNL     1     102.704 104.881 127.850  0.00  0.00    +0.000 N 
ATOM     10  O   UNL     1     103.920 106.196 126.390  0.00  0.00    +0.000 OA
BRANCH   9  11
ATOM     11  C   UNL     1     102.533 104.659 129.316  0.00  0.00    +0.000 A 
ATOM     12  C   UNL     1     102.474 103.324 129.710  0.00  0.00    +0.000 A 
ATOM     13  C   UNL     1     102.317 102.966 131.038  0.00  0.00    +0.000 A 
ATOM     14  C   UNL     1     102.273 105.291 131.632  0.00  0.00    +0.000 A 
ATOM     15  C   UNL     1     102.217 103.956 131.999  0.00  0.00    +0.000 A 
ATOM     16  C   UNL     1     102.430 105.633 130.296  0.00  0.00    +0.000 A 
ENDBRANCH   9  11
BRANCH   8  17
ATOM     17  C   UNL     1     105.321 105.087 127.889  0.00  0.00    +0.000 C 
ATOM     18  C   UNL     1     106.361 105.056 126.751  0.00  0.00    +0.000 C 
ENDBRANCH   8  17
ENDBRANCH   2   9
BRANCH   6  19
ATOM     19  C   UNL     1      98.238 102.339 125.290  0.00  0.00    +0.000 C 
BRANCH  19  20
ATOM     20  C   UNL     1      98.554 102.264 123.800  0.00  0.00    +0.000 C 
BRANCH  20  23
ATOM     21  C   UNL     1      97.727  99.903 124.120  0.00  0.00    +0.000 A 
ATOM     22  C   UNL     1      98.013  98.270 122.409  0.00  0.00    +0.000 A 
ATOM     23  C   UNL     1      98.357 100.829 123.305  0.00  0.00    +0.000 A 
ATOM     24  C   UNL     1      97.555  98.613 123.663  0.00  0.00    +0.000 A 
ATOM     25  C   UNL     1      98.639  99.182 121.596  0.00  0.00    +0.000 A 
ATOM     26  C   UNL     1      98.814 100.476 122.050  0.00  0.00    +0.000 A 
ENDBRANCH  20  23
ENDBRANCH  19  20
ENDBRANCH   6  19
TORSDOF 6
