REMARK minimizedAffinity -7.25605249
REMARK minimizedRMSD -1
REMARK  Name = 04_docking/output/fentanyl.pdb
REMARK  7 active torsions:
REMARK  status: ('A' for Active; 'I' for Inactive)
REMARK    1  A    between atoms: C_2  and  C_16
REMARK    2  A    between atoms: C_2  and  C_17
REMARK    3  A    between atoms: C_5  and  N_23
REMARK    4  A    between atoms: C_9  and  C_10
REMARK    5  A    between atoms: C_10  and  C_11
REMARK    6  A    between atoms: C_12  and  N_23
REMARK    7  A    between atoms: C_16  and  N_24
REMARK                            x       y       z     vdW  Elec       q    Type
REMARK                         _______ _______ _______ _____ _____    ______ ____
ROOT
ATOM      1  C   UNL     1     103.680 103.375 126.059  0.00  0.00    +0.000 C 
ATOM      2  C   UNL     1     102.588 104.628 124.115  0.00  0.00    +0.000 C 
ATOM      3  C   UNL     1     101.258 104.484 124.876  0.00  0.00    +0.000 C 
ATOM      4  C   UNL     1     101.265 103.307 125.853  0.00  0.00    +0.000 C 
ATOM      5  C   UNL     1     103.788 104.537 125.070  0.00  0.00    +0.000 C 
ATOM      6  N   UNL     1     102.404 103.433 126.787  0.00  0.00    +0.000 N 
ATOM      7  H   UNL     1     102.326 104.344 127.240  0.00  0.00    +0.000 HD
ENDROOT
BRANCH   2   9
ATOM      8  C   UNL     1     102.207 107.089 123.795  0.00  0.00    +0.000 C 
ATOM      9  N   UNL     1     102.619 105.830 123.242  0.00  0.00    +0.000 N 
ATOM     10  O   UNL     1     102.452 107.377 124.950  0.00  0.00    +0.000 OA
BRANCH   9  11
ATOM     11  C   UNL     1     103.090 105.735 121.830  0.00  0.00    +0.000 A 
ATOM     12  C   UNL     1     104.462 105.893 121.652  0.00  0.00    +0.000 A 
ATOM     13  C   UNL     1     105.043 105.830 120.396  0.00  0.00    +0.000 A 
ATOM     14  C   UNL     1     102.875 105.446 119.442  0.00  0.00    +0.000 A 
ATOM     15  C   UNL     1     104.243 105.605 119.291  0.00  0.00    +0.000 A 
ATOM     16  C   UNL     1     102.308 105.512 120.707  0.00  0.00    +0.000 A 
ENDBRANCH   9  11
BRANCH   8  17
ATOM     17  C   UNL     1     101.441 108.164 123.002  0.00  0.00    +0.000 C 
ATOM     18  C   UNL     1     100.017 107.674 122.675  0.00  0.00    +0.000 C 
ENDBRANCH   8  17
ENDBRANCH   2   9
BRANCH   6  19
ATOM     19  C   UNL     1     102.363 102.411 127.848  0.00  0.00    +0.000 C 
BRANCH  19  20
ATOM     20  C   UNL     1     103.494 102.573 128.859  0.00  0.00    +0.000 C 
BRANCH  20  23
ATOM     21  C   UNL     1     103.589 104.938 129.730  0.00  0.00    +0.000 A 
ATOM     22  C   UNL     1     102.435 105.549 131.723  0.00  0.00    +0.000 A 
ATOM     23  C   UNL     1     103.116 103.645 129.884  0.00  0.00    +0.000 A 
ATOM     24  C   UNL     1     103.241 105.895 130.660  0.00  0.00    +0.000 A 
ATOM     25  C   UNL     1     101.964 104.269 131.882  0.00  0.00    +0.000 A 
ATOM     26  C   UNL     1     102.310 103.306 130.953  0.00  0.00    +0.000 A 
ENDBRANCH  20  23
ENDBRANCH  19  20
ENDBRANCH   6  19
TORSDOF 6
