REMARK minimizedAffinity -6.52455902
REMARK minimizedRMSD -1
REMARK  Name = 04_docking/output/fentanyl.pdb
REMARK  7 active torsions:
REMARK  status: ('A' for Active; 'I' for Inactive)
REMARK    1  A    between atoms: C_2  and  C_16
REMARK    2  A    between atoms: C_2  and  C_17
REMARK    3  A    between atoms: C_5  and  N_23
REMARK    4  A    between atoms: C_9  and  C_10
REMARK    5  A    between atoms: C_10  and  C_11
REMARK    6  A    between atoms: C_12  and  N_23
REMARK    7  A    between atoms: C_16  and  N_24
REMARK                            x       y       z     vdW  Elec       q    Type
REMARK                         _______ _______ _______ _____ _____    ______ ____
ROOT
ATOM      1  C   UNL     1     100.721 104.049 127.252  0.00  0.00    +0.000 C 
ATOM      2  C   UNL     1     100.496 106.192 125.874  0.00  0.00    +0.000 C 
ATOM      3  C   UNL     1     102.013 106.095 125.627  0.00  0.00    +0.000 C 
ATOM      4  C   UNL     1     102.733 105.288 126.709  0.00  0.00    +0.000 C 
ATOM      5  C   UNL     1      99.900 104.818 126.215  0.00  0.00    +0.000 C 
ATOM      6  N   UNL     1     102.125 103.946 126.827  0.00  0.00    +0.000 N 
ATOM      7  H   UNL     1     102.157 103.516 125.902  0.00  0.00    +0.000 HD
ENDROOT
BRANCH   2   9
ATOM      8  C   UNL     1      98.740 107.814 125.108  0.00  0.00    +0.000 C 
ATOM      9  N   UNL     1      99.783 106.887 124.772  0.00  0.00    +0.000 N 
ATOM     10  O   UNL     1      98.822 108.520 126.094  0.00  0.00    +0.000 OA
BRANCH   9  11
ATOM     11  C   UNL     1     100.158 106.645 123.348  0.00  0.00    +0.000 A 
ATOM     12  C   UNL     1     100.893 107.665 122.748  0.00  0.00    +0.000 A 
ATOM     13  C   UNL     1     101.311 107.580 121.431  0.00  0.00    +0.000 A 
ATOM     14  C   UNL     1     100.262 105.428 121.265  0.00  0.00    +0.000 A 
ATOM     15  C   UNL     1     100.992 106.456 120.691  0.00  0.00    +0.000 A 
ATOM     16  C   UNL     1      99.850 105.529 122.587  0.00  0.00    +0.000 A 
ENDBRANCH   9  11
BRANCH   8  17
ATOM     17  C   UNL     1      97.457 108.001 124.276  0.00  0.00    +0.000 C 
ATOM     18  C   UNL     1      96.628 109.178 124.828  0.00  0.00    +0.000 C 
ENDBRANCH   8  17
ENDBRANCH   2   9
BRANCH   6  19
ATOM     19  C   UNL     1     102.883 103.075 127.741  0.00  0.00    +0.000 C 
BRANCH  19  20
ATOM     20  C   UNL     1     102.214 102.936 129.105  0.00  0.00    +0.000 C 
BRANCH  20  23
ATOM     21  C   UNL     1     101.978 104.854 130.726  0.00  0.00    +0.000 A 
ATOM     22  C   UNL     1     103.891 105.778 131.804  0.00  0.00    +0.000 A 
ATOM     23  C   UNL     1     102.811 103.957 130.075  0.00  0.00    +0.000 A 
ATOM     24  C   UNL     1     102.528 105.769 131.599  0.00  0.00    +0.000 A 
ATOM     25  C   UNL     1     104.722 104.894 131.162  0.00  0.00    +0.000 A 
ATOM     26  C   UNL     1     104.175 103.975 130.287  0.00  0.00    +0.000 A 
ENDBRANCH  20  23
ENDBRANCH  19  20
ENDBRANCH   6  19
TORSDOF 6
