REMARK minimizedAffinity -7.30362844
REMARK minimizedRMSD -1
REMARK  Name = 04_docking/output/fentanyl.pdb
REMARK  7 active torsions:
REMARK  status: ('A' for Active; 'I' for Inactive)
REMARK    1  A    between atoms: C_2  and  C_16
REMARK    2  A    between atoms: C_2  and  C_17
REMARK    3  A    between atoms: C_5  and  N_23
REMARK    4  A    between atoms: C_9  and  C_10
REMARK    5  A    between atoms: C_10  and  C_11
REMARK    6  A    between atoms: C_12  and  N_23
REMARK    7  A    between atoms: C_16  and  N_24
REMARK                            x       y       z     vdW  Elec       q    Type
REMARK                         _______ _______ _______ _____ _____    ______ ____
ROOT
ATOM      1  C   UNL     1     104.512 102.983 125.202  0.00  0.00    +0.000 C 
ATOM      2  C   UNL     1     103.286 103.683 123.069  0.00  0.00    +0.000 C 
ATOM      3  C   UNL     1     101.983 103.582 123.883  0.00  0.00    +0.000 C 
ATOM      4  C   UNL     1     102.114 102.647 125.086  0.00  0.00    +0.000 C 
ATOM      5  C   UNL     1     104.498 103.911 123.986  0.00  0.00    +0.000 C 
ATOM      6  N   UNL     1     103.243 103.076 125.939  0.00  0.00    +0.000 N 
ATOM      7  H   UNL     1     103.080 104.051 126.190  0.00  0.00    +0.000 HD
ENDROOT
BRANCH   2   9
ATOM      8  C   UNL     1     103.766 104.328 120.690  0.00  0.00    +0.000 C 
ATOM      9  N   UNL     1     103.192 104.668 121.961  0.00  0.00    +0.000 N 
ATOM     10  O   UNL     1     103.729 103.188 120.271  0.00  0.00    +0.000 OA
BRANCH   9  11
ATOM     11  C   UNL     1     102.495 105.973 122.158  0.00  0.00    +0.000 A 
ATOM     12  C   UNL     1     101.338 106.145 121.402  0.00  0.00    +0.000 A 
ATOM     13  C   UNL     1     100.586 107.306 121.480  0.00  0.00    +0.000 A 
ATOM     14  C   UNL     1     102.140 108.172 123.091  0.00  0.00    +0.000 A 
ATOM     15  C   UNL     1     100.992 108.319 122.329  0.00  0.00    +0.000 A 
ATOM     16  C   UNL     1     102.882 107.002 123.001  0.00  0.00    +0.000 A 
ENDBRANCH   9  11
BRANCH   8  17
ATOM     17  C   UNL     1     104.460 105.343 119.764  0.00  0.00    +0.000 C 
ATOM     18  C   UNL     1     103.738 105.406 118.403  0.00  0.00    +0.000 C 
ENDBRANCH   8  17
ENDBRANCH   2   9
BRANCH   6  19
ATOM     19  C   UNL     1     103.311 102.306 127.192  0.00  0.00    +0.000 C 
BRANCH  19  20
ATOM     20  C   UNL     1     102.224 102.707 128.185  0.00  0.00    +0.000 C 
BRANCH  20  23
ATOM     21  C   UNL     1     104.252 103.343 129.545  0.00  0.00    +0.000 A 
ATOM     22  C   UNL     1     104.014 104.220 131.748  0.00  0.00    +0.000 A 
ATOM     23  C   UNL     1     102.872 103.250 129.461  0.00  0.00    +0.000 A 
ATOM     24  C   UNL     1     104.822 103.834 130.700  0.00  0.00    +0.000 A 
ATOM     25  C   UNL     1     102.646 104.130 131.672  0.00  0.00    +0.000 A 
ATOM     26  C   UNL     1     102.069 103.638 130.517  0.00  0.00    +0.000 A 
ENDBRANCH  20  23
ENDBRANCH  19  20
ENDBRANCH   6  19
TORSDOF 6
