REMARK minimizedAffinity -6.28152704
REMARK minimizedRMSD -1
REMARK  Name = 04_docking/output/fentanyl.pdb
REMARK  7 active torsions:
REMARK  status: ('A' for Active; 'I' for Inactive)
REMARK    1  A    between atoms: C_2  and  C_16
REMARK    2  A    between atoms: C_2  and  C_17
REMARK    3  A    between atoms: C_5  and  N_23
REMARK    4  A    between atoms: C_9  and  C_10
REMARK    5  A    between atoms: C_10  and  C_11
REMARK    6  A    between atoms: C_12  and  N_23
REMARK    7  A    between atoms: C_16  and  N_24
REMARK                            x       y       z     vdW  Elec       q    Type
REMARK                         _______ _______ _______ _____ _____    ______ ____
ROOT
ATOM      1  C   UNL     1      99.425 101.607 124.338  0.00  0.00    +0.000 C 
ATOM      2  C   UNL     1      96.954 102.081 123.880  0.00  0.00    +0.000 C 
ATOM      3  C   UNL     1      97.182 101.482 122.481  0.00  0.00    +0.000 C 
ATOM      4  C   UNL     1      98.646 101.556 122.042  0.00  0.00    +0.000 C 
ATOM      5  C   UNL     1      97.996 101.564 124.883  0.00  0.00    +0.000 C 
ATOM      6  N   UNL     1      99.508 100.903 123.050  0.00  0.00    +0.000 N 
ATOM      7  H   UNL     1      99.163  99.951 123.174  0.00  0.00    +0.000 HD
ENDROOT
BRANCH   2   9
ATOM      8  C   UNL     1      95.166 102.539 125.583  0.00  0.00    +0.000 C 
ATOM      9  N   UNL     1      95.553 101.918 124.348  0.00  0.00    +0.000 N 
ATOM     10  O   UNL     1      95.616 103.620 125.910  0.00  0.00    +0.000 OA
BRANCH   9  11
ATOM     11  C   UNL     1      94.565 101.145 123.541  0.00  0.00    +0.000 A 
ATOM     12  C   UNL     1      93.634 101.916 122.849  0.00  0.00    +0.000 A 
ATOM     13  C   UNL     1      92.655 101.336 122.059  0.00  0.00    +0.000 A 
ATOM     14  C   UNL     1      93.514  99.170 122.633  0.00  0.00    +0.000 A 
ATOM     15  C   UNL     1      92.599  99.959 121.953  0.00  0.00    +0.000 A 
ATOM     16  C   UNL     1      94.488  99.766 123.420  0.00  0.00    +0.000 A 
ENDBRANCH   9  11
BRANCH   8  17
ATOM     17  C   UNL     1      94.172 101.917 126.581  0.00  0.00    +0.000 C 
ATOM     18  C   UNL     1      94.793 101.865 127.992  0.00  0.00    +0.000 C 
ENDBRANCH   8  17
ENDBRANCH   2   9
BRANCH   6  19
ATOM     19  C   UNL     1     100.907 100.806 122.599  0.00  0.00    +0.000 C 
BRANCH  19  20
ATOM     20  C   UNL     1     101.728 102.037 122.973  0.00  0.00    +0.000 C 
BRANCH  20  23
ATOM     21  C   UNL     1     103.755 100.552 122.750  0.00  0.00    +0.000 A 
ATOM     22  C   UNL     1     105.640 100.844 124.178  0.00  0.00    +0.000 A 
ATOM     23  C   UNL     1     103.133 101.605 123.401  0.00  0.00    +0.000 A 
ATOM     24  C   UNL     1     105.021 100.173 123.145  0.00  0.00    +0.000 A 
ATOM     25  C   UNL     1     105.029 101.887 124.828  0.00  0.00    +0.000 A 
ATOM     26  C   UNL     1     103.760 102.270 124.436  0.00  0.00    +0.000 A 
ENDBRANCH  20  23
ENDBRANCH  19  20
ENDBRANCH   6  19
TORSDOF 6
