REMARK minimizedAffinity -8.28267384
REMARK minimizedRMSD -1
REMARK  Name = 04_docking/output/fentanyl.pdb
REMARK  7 active torsions:
REMARK  status: ('A' for Active; 'I' for Inactive)
REMARK    1  A    between atoms: C_2  and  C_16
REMARK    2  A    between atoms: C_2  and  C_17
REMARK    3  A    between atoms: C_5  and  N_23
REMARK    4  A    between atoms: C_9  and  C_10
REMARK    5  A    between atoms: C_10  and  C_11
REMARK    6  A    between atoms: C_12  and  N_23
REMARK    7  A    between atoms: C_16  and  N_24
REMARK                            x       y       z     vdW  Elec       q    Type
REMARK                         _______ _______ _______ _____ _____    ______ ____
ROOT
ATOM      1  C   UNL     1     100.492 102.537 125.513  0.00  0.00    +0.000 C 
ATOM      2  C   UNL     1     101.635 104.387 126.858  0.00  0.00    +0.000 C 
ATOM      3  C   UNL     1     100.235 104.766 127.373  0.00  0.00    +0.000 C 
ATOM      4  C   UNL     1      99.120 104.314 126.428  0.00  0.00    +0.000 C 
ATOM      5  C   UNL     1     101.681 102.923 126.396  0.00  0.00    +0.000 C 
ATOM      6  N   UNL     1      99.224 102.860 126.183  0.00  0.00    +0.000 N 
ATOM      7  H   UNL     1      99.206 102.397 127.092  0.00  0.00    +0.000 HD
ENDROOT
BRANCH   2   9
ATOM      8  C   UNL     1     103.903 105.360 127.327  0.00  0.00    +0.000 C 
ATOM      9  N   UNL     1     102.710 104.734 127.824  0.00  0.00    +0.000 N 
ATOM     10  O   UNL     1     103.857 106.160 126.412  0.00  0.00    +0.000 OA
BRANCH   9  11
ATOM     11  C   UNL     1     102.544 104.460 129.281  0.00  0.00    +0.000 A 
ATOM     12  C   UNL     1     102.461 105.590 130.090  0.00  0.00    +0.000 A 
ATOM     13  C   UNL     1     102.306 105.491 131.462  0.00  0.00    +0.000 A 
ATOM     14  C   UNL     1     102.314 103.099 131.262  0.00  0.00    +0.000 A 
ATOM     15  C   UNL     1     102.233 104.239 132.046  0.00  0.00    +0.000 A 
ATOM     16  C   UNL     1     102.469 103.216 129.888  0.00  0.00    +0.000 A 
ENDBRANCH   9  11
BRANCH   8  17
ATOM     17  C   UNL     1     105.311 105.089 127.887  0.00  0.00    +0.000 C 
ATOM     18  C   UNL     1     106.351 105.104 126.749  0.00  0.00    +0.000 C 
ENDBRANCH   8  17
ENDBRANCH   2   9
BRANCH   6  19
ATOM     19  C   UNL     1      98.081 102.348 125.408  0.00  0.00    +0.000 C 
BRANCH  19  20
ATOM     20  C   UNL     1      96.881 103.289 125.446  0.00  0.00    +0.000 C 
BRANCH  20  23
ATOM     21  C   UNL     1      95.709 102.317 127.457  0.00  0.00    +0.000 A 
ATOM     22  C   UNL     1      93.562 101.306 127.244  0.00  0.00    +0.000 A 
ATOM     23  C   UNL     1      95.692 102.578 126.096  0.00  0.00    +0.000 A 
ATOM     24  C   UNL     1      94.631 101.677 128.031  0.00  0.00    +0.000 A 
ATOM     25  C   UNL     1      93.539 101.560 125.895  0.00  0.00    +0.000 A 
ATOM     26  C   UNL     1      94.617 102.202 125.315  0.00  0.00    +0.000 A 
ENDBRANCH  20  23
ENDBRANCH  19  20
ENDBRANCH   6  19
TORSDOF 6
