REMARK minimizedAffinity -6.75052643
REMARK minimizedRMSD -1
REMARK  Name = 04_docking/output/fentanyl.pdb
REMARK  7 active torsions:
REMARK  status: ('A' for Active; 'I' for Inactive)
REMARK    1  A    between atoms: C_2  and  C_16
REMARK    2  A    between atoms: C_2  and  C_17
REMARK    3  A    between atoms: C_5  and  N_23
REMARK    4  A    between atoms: C_9  and  C_10
REMARK    5  A    between atoms: C_10  and  C_11
REMARK    6  A    between atoms: C_12  and  N_23
REMARK    7  A    between atoms: C_16  and  N_24
REMARK                            x       y       z     vdW  Elec       q    Type
REMARK                         _______ _______ _______ _____ _____    ______ ____
ROOT
ATOM      1  C   UNL     1      99.137 105.033 126.155  0.00  0.00    +0.000 C 
ATOM      2  C   UNL     1     101.529 104.631 126.965  0.00  0.00    +0.000 C 
ATOM      3  C   UNL     1     101.966 104.793 125.499  0.00  0.00    +0.000 C 
ATOM      4  C   UNL     1     100.836 104.491 124.513  0.00  0.00    +0.000 C 
ATOM      5  C   UNL     1     100.187 105.332 127.226  0.00  0.00    +0.000 C 
ATOM      6  N   UNL     1      99.662 105.337 124.816  0.00  0.00    +0.000 N 
ATOM      7  H   UNL     1      99.975 106.308 124.800  0.00  0.00    +0.000 HD
ENDROOT
BRANCH   2   9
ATOM      8  C   UNL     1     103.741 105.727 127.425  0.00  0.00    +0.000 C 
ATOM      9  N   UNL     1     102.595 105.022 127.924  0.00  0.00    +0.000 N 
ATOM     10  O   UNL     1     103.636 106.540 126.528  0.00  0.00    +0.000 OA
BRANCH   9  11
ATOM     11  C   UNL     1     102.465 104.710 129.378  0.00  0.00    +0.000 A 
ATOM     12  C   UNL     1     102.446 103.353 129.692  0.00  0.00    +0.000 A 
ATOM     13  C   UNL     1     102.330 102.913 130.999  0.00  0.00    +0.000 A 
ATOM     14  C   UNL     1     102.246 105.196 131.732  0.00  0.00    +0.000 A 
ATOM     15  C   UNL     1     102.231 103.841 132.020  0.00  0.00    +0.000 A 
ATOM     16  C   UNL     1     102.363 105.621 130.416  0.00  0.00    +0.000 A 
ENDBRANCH   9  11
BRANCH   8  17
ATOM     17  C   UNL     1     105.171 105.529 127.963  0.00  0.00    +0.000 C 
ATOM     18  C   UNL     1     106.110 105.076 126.828  0.00  0.00    +0.000 C 
ENDBRANCH   8  17
ENDBRANCH   2   9
BRANCH   6  19
ATOM     19  C   UNL     1      98.606 105.200 123.799  0.00  0.00    +0.000 C 
BRANCH  19  20
ATOM     20  C   UNL     1      98.455 106.452 122.940  0.00  0.00    +0.000 C 
BRANCH  20  23
ATOM     21  C   UNL     1      97.932 108.343 124.525  0.00  0.00    +0.000 A 
ATOM     22  C   UNL     1      95.697 109.127 124.788  0.00  0.00    +0.000 A 
ATOM     23  C   UNL     1      97.470 107.415 123.606  0.00  0.00    +0.000 A 
ATOM     24  C   UNL     1      97.034 109.206 125.118  0.00  0.00    +0.000 A 
ATOM     25  C   UNL     1      95.232 108.210 123.879  0.00  0.00    +0.000 A 
ATOM     26  C   UNL     1      96.129 107.343 123.283  0.00  0.00    +0.000 A 
ENDBRANCH  20  23
ENDBRANCH  19  20
ENDBRANCH   6  19
TORSDOF 6
