REMARK minimizedAffinity -6.34390736
REMARK minimizedRMSD -1
REMARK  Name = 04_docking/output/fentanyl.pdb
REMARK  7 active torsions:
REMARK  status: ('A' for Active; 'I' for Inactive)
REMARK    1  A    between atoms: C_2  and  C_16
REMARK    2  A    between atoms: C_2  and  C_17
REMARK    3  A    between atoms: C_5  and  N_23
REMARK    4  A    between atoms: C_9  and  C_10
REMARK    5  A    between atoms: C_10  and  C_11
REMARK    6  A    between atoms: C_12  and  N_23
REMARK    7  A    between atoms: C_16  and  N_24
REMARK                            x       y       z     vdW  Elec       q    Type
REMARK                         _______ _______ _______ _____ _____    ______ ____
ROOT
ATOM      1  C   UNL     1     100.499 101.758 124.503  0.00  0.00    +0.000 C 
ATOM      2  C   UNL     1      98.335 102.672 125.515  0.00  0.00    +0.000 C 
ATOM      3  C   UNL     1      99.195 103.784 126.142  0.00  0.00    +0.000 C 
ATOM      4  C   UNL     1     100.660 103.373 126.303  0.00  0.00    +0.000 C 
ATOM      5  C   UNL     1      99.018 102.073 124.277  0.00  0.00    +0.000 C 
ATOM      6  N   UNL     1     101.210 102.945 125.000  0.00  0.00    +0.000 N 
ATOM      7  H   UNL     1     101.067 103.712 124.342  0.00  0.00    +0.000 HD
ENDROOT
BRANCH   2   9
ATOM      8  C   UNL     1      96.698 104.107 124.265  0.00  0.00    +0.000 C 
ATOM      9  N   UNL     1      96.936 103.106 125.265  0.00  0.00    +0.000 N 
ATOM     10  O   UNL     1      97.360 104.147 123.246  0.00  0.00    +0.000 OA
BRANCH   9  11
ATOM     11  C   UNL     1      95.802 102.497 126.020  0.00  0.00    +0.000 A 
ATOM     12  C   UNL     1      94.752 102.029 125.233  0.00  0.00    +0.000 A 
ATOM     13  C   UNL     1      93.632 101.440 125.795  0.00  0.00    +0.000 A 
ATOM     14  C   UNL     1      94.584 101.770 127.973  0.00  0.00    +0.000 A 
ATOM     15  C   UNL     1      93.552 101.312 127.170  0.00  0.00    +0.000 A 
ATOM     16  C   UNL     1      95.700 102.358 127.395  0.00  0.00    +0.000 A 
ENDBRANCH   9  11
BRANCH   8  17
ATOM     17  C   UNL     1      95.611 105.193 124.380  0.00  0.00    +0.000 C 
ATOM     18  C   UNL     1      96.212 106.583 124.089  0.00  0.00    +0.000 C 
ENDBRANCH   8  17
ENDBRANCH   2   9
BRANCH   6  19
ATOM     19  C   UNL     1     102.659 102.692 125.069  0.00  0.00    +0.000 C 
BRANCH  19  20
ATOM     20  C   UNL     1     103.219 102.880 126.476  0.00  0.00    +0.000 C 
BRANCH  20  23
ATOM     21  C   UNL     1     105.276 103.724 125.284  0.00  0.00    +0.000 A 
ATOM     22  C   UNL     1     106.717 105.314 126.320  0.00  0.00    +0.000 A 
ATOM     23  C   UNL     1     104.475 103.753 126.414  0.00  0.00    +0.000 A 
ATOM     24  C   UNL     1     106.405 104.515 125.241  0.00  0.00    +0.000 A 
ATOM     25  C   UNL     1     105.928 105.347 127.444  0.00  0.00    +0.000 A 
ATOM     26  C   UNL     1     104.796 104.555 127.491  0.00  0.00    +0.000 A 
ENDBRANCH  20  23
ENDBRANCH  19  20
ENDBRANCH   6  19
TORSDOF 6
