REMARK minimizedAffinity -6.53561068
REMARK minimizedRMSD -1
REMARK  Name = 04_docking/output/fentanyl.pdb
REMARK  7 active torsions:
REMARK  status: ('A' for Active; 'I' for Inactive)
REMARK    1  A    between atoms: C_2  and  C_16
REMARK    2  A    between atoms: C_2  and  C_17
REMARK    3  A    between atoms: C_5  and  N_23
REMARK    4  A    between atoms: C_9  and  C_10
REMARK    5  A    between atoms: C_10  and  C_11
REMARK    6  A    between atoms: C_12  and  N_23
REMARK    7  A    between atoms: C_16  and  N_24
REMARK                            x       y       z     vdW  Elec       q    Type
REMARK                         _______ _______ _______ _____ _____    ______ ____
ROOT
ATOM      1  C   UNL     1     100.299 103.831 125.149  0.00  0.00    +0.000 C 
ATOM      2  C   UNL     1     102.718 103.729 124.328  0.00  0.00    +0.000 C 
ATOM      3  C   UNL     1     102.670 105.265 124.248  0.00  0.00    +0.000 C 
ATOM      4  C   UNL     1     101.245 105.801 124.099  0.00  0.00    +0.000 C 
ATOM      5  C   UNL     1     101.678 103.191 125.321  0.00  0.00    +0.000 C 
ATOM      6  N   UNL     1     100.399 105.297 125.202  0.00  0.00    +0.000 N 
ATOM      7  H   UNL     1     100.850 105.564 126.077  0.00  0.00    +0.000 HD
ENDROOT
BRANCH   2   9
ATOM      8  C   UNL     1     104.490 101.993 123.934  0.00  0.00    +0.000 C 
ATOM      9  N   UNL     1     104.090 103.214 124.574  0.00  0.00    +0.000 N 
ATOM     10  O   UNL     1     104.112 101.721 122.810  0.00  0.00    +0.000 OA
BRANCH   9  11
ATOM     11  C   UNL     1     105.040 103.961 125.449  0.00  0.00    +0.000 A 
ATOM     12  C   UNL     1     106.121 104.540 124.790  0.00  0.00    +0.000 A 
ATOM     13  C   UNL     1     107.084 105.264 125.473  0.00  0.00    +0.000 A 
ATOM     14  C   UNL     1     105.905 104.850 127.521  0.00  0.00    +0.000 A 
ATOM     15  C   UNL     1     106.971 105.417 126.843  0.00  0.00    +0.000 A 
ATOM     16  C   UNL     1     104.948 104.127 126.822  0.00  0.00    +0.000 A 
ENDBRANCH   9  11
BRANCH   8  17
ATOM     17  C   UNL     1     105.408 100.942 124.586  0.00  0.00    +0.000 C 
ATOM     18  C   UNL     1     106.026 100.030 123.508  0.00  0.00    +0.000 C 
ENDBRANCH   8  17
ENDBRANCH   2   9
BRANCH   6  19
ATOM     19  C   UNL     1      99.060 105.911 125.194  0.00  0.00    +0.000 C 
BRANCH  19  20
ATOM     20  C   UNL     1      99.114 107.429 125.052  0.00  0.00    +0.000 C 
BRANCH  20  23
ATOM     21  C   UNL     1      97.270 109.148 124.974  0.00  0.00    +0.000 A 
ATOM     22  C   UNL     1      95.381 108.843 123.554  0.00  0.00    +0.000 A 
ATOM     23  C   UNL     1      97.775 107.942 124.517  0.00  0.00    +0.000 A 
ATOM     24  C   UNL     1      96.063 109.599 124.483  0.00  0.00    +0.000 A 
ATOM     25  C   UNL     1      95.875 107.646 123.098  0.00  0.00    +0.000 A 
ATOM     26  C   UNL     1      97.084 107.190 123.587  0.00  0.00    +0.000 A 
ENDBRANCH  20  23
ENDBRANCH  19  20
ENDBRANCH   6  19
TORSDOF 6
