REMARK minimizedAffinity -8.01835728
REMARK minimizedRMSD -1
REMARK  Name = 04_docking/output/fentanyl.pdb
REMARK  7 active torsions:
REMARK  status: ('A' for Active; 'I' for Inactive)
REMARK    1  A    between atoms: C_2  and  C_16
REMARK    2  A    between atoms: C_2  and  C_17
REMARK    3  A    between atoms: C_5  and  N_23
REMARK    4  A    between atoms: C_9  and  C_10
REMARK    5  A    between atoms: C_10  and  C_11
REMARK    6  A    between atoms: C_12  and  N_23
REMARK    7  A    between atoms: C_16  and  N_24
REMARK                            x       y       z     vdW  Elec       q    Type
REMARK                         _______ _______ _______ _____ _____    ______ ____
ROOT
ATOM      1  C   UNL     1     102.452 103.484 128.205  0.00  0.00    +0.000 C 
ATOM      2  C   UNL     1     103.250 103.960 125.822  0.00  0.00    +0.000 C 
ATOM      3  C   UNL     1     103.125 105.455 126.166  0.00  0.00    +0.000 C 
ATOM      4  C   UNL     1     102.139 105.714 127.307  0.00  0.00    +0.000 C 
ATOM      5  C   UNL     1     103.431 103.111 127.089  0.00  0.00    +0.000 C 
ATOM      6  N   UNL     1     102.523 104.923 128.495  0.00  0.00    +0.000 N 
ATOM      7  H   UNL     1     103.488 105.165 128.722  0.00  0.00    +0.000 HD
ENDROOT
BRANCH   2   9
ATOM      8  C   UNL     1     104.021 102.690 123.798  0.00  0.00    +0.000 C 
ATOM      9  N   UNL     1     104.282 103.699 124.785  0.00  0.00    +0.000 N 
ATOM     10  O   UNL     1     102.901 102.517 123.358  0.00  0.00    +0.000 OA
BRANCH   9  11
ATOM     11  C   UNL     1     105.550 104.484 124.756  0.00  0.00    +0.000 A 
ATOM     12  C   UNL     1     105.690 105.342 123.668  0.00  0.00    +0.000 A 
ATOM     13  C   UNL     1     106.815 106.134 123.509  0.00  0.00    +0.000 A 
ATOM     14  C   UNL     1     107.710 105.225 125.542  0.00  0.00    +0.000 A 
ATOM     15  C   UNL     1     107.825 106.072 124.451  0.00  0.00    +0.000 A 
ATOM     16  C   UNL     1     106.576 104.439 125.687  0.00  0.00    +0.000 A 
ENDBRANCH   9  11
BRANCH   8  17
ATOM     17  C   UNL     1     105.102 101.760 123.216  0.00  0.00    +0.000 C 
ATOM     18  C   UNL     1     105.218 100.479 124.065  0.00  0.00    +0.000 C 
ENDBRANCH   8  17
ENDBRANCH   2   9
BRANCH   6  19
ATOM     19  C   UNL     1     101.700 105.258 129.670  0.00  0.00    +0.000 C 
BRANCH  19  20
ATOM     20  C   UNL     1     101.880 104.263 130.813  0.00  0.00    +0.000 C 
BRANCH  20  23
ATOM     21  C   UNL     1     101.595 106.347 132.204  0.00  0.00    +0.000 A 
ATOM     22  C   UNL     1     101.155 106.201 134.541  0.00  0.00    +0.000 A 
ATOM     23  C   UNL     1     101.620 104.963 132.148  0.00  0.00    +0.000 A 
ATOM     24  C   UNL     1     101.358 106.967 133.413  0.00  0.00    +0.000 A 
ATOM     25  C   UNL     1     101.179 104.829 134.494  0.00  0.00    +0.000 A 
ATOM     26  C   UNL     1     101.416 104.204 133.284  0.00  0.00    +0.000 A 
ENDBRANCH  20  23
ENDBRANCH  19  20
ENDBRANCH   6  19
TORSDOF 6
