REMARK minimizedAffinity -8.15186214
REMARK minimizedRMSD -1
REMARK  Name = 04_docking/output/fentanyl.pdb
REMARK  7 active torsions:
REMARK  status: ('A' for Active; 'I' for Inactive)
REMARK    1  A    between atoms: C_2  and  C_16
REMARK    2  A    between atoms: C_2  and  C_17
REMARK    3  A    between atoms: C_5  and  N_23
REMARK    4  A    between atoms: C_9  and  C_10
REMARK    5  A    between atoms: C_10  and  C_11
REMARK    6  A    between atoms: C_12  and  N_23
REMARK    7  A    between atoms: C_16  and  N_24
REMARK                            x       y       z     vdW  Elec       q    Type
REMARK                         _______ _______ _______ _____ _____    ______ ____
ROOT
ATOM      1  C   UNL     1     103.533 106.630 127.359  0.00  0.00    +0.000 C 
ATOM      2  C   UNL     1     105.044 105.059 126.023  0.00  0.00    +0.000 C 
ATOM      3  C   UNL     1     104.715 103.982 127.072  0.00  0.00    +0.000 C 
ATOM      4  C   UNL     1     104.286 104.581 128.413  0.00  0.00    +0.000 C 
ATOM      5  C   UNL     1     103.953 106.139 125.973  0.00  0.00    +0.000 C 
ATOM      6  N   UNL     1     103.144 105.499 128.213  0.00  0.00    +0.000 N 
ATOM      7  H   UNL     1     102.408 104.971 127.744  0.00  0.00    +0.000 HD
ENDROOT
BRANCH   2   9
ATOM      8  C   UNL     1     106.326 105.148 123.865  0.00  0.00    +0.000 C 
ATOM      9  N   UNL     1     105.362 104.480 124.692  0.00  0.00    +0.000 N 
ATOM     10  O   UNL     1     107.298 105.694 124.352  0.00  0.00    +0.000 OA
BRANCH   9  11
ATOM     11  C   UNL     1     104.710 103.218 124.234  0.00  0.00    +0.000 A 
ATOM     12  C   UNL     1     105.502 102.076 124.327  0.00  0.00    +0.000 A 
ATOM     13  C   UNL     1     105.031 100.833 123.938  0.00  0.00    +0.000 A 
ATOM     14  C   UNL     1     102.936 101.843 123.344  0.00  0.00    +0.000 A 
ATOM     15  C   UNL     1     103.743 100.721 123.446  0.00  0.00    +0.000 A 
ATOM     16  C   UNL     1     103.424 103.081 123.737  0.00  0.00    +0.000 A 
ENDBRANCH   9  11
BRANCH   8  17
ATOM     17  C   UNL     1     106.229 105.234 122.331  0.00  0.00    +0.000 C 
ATOM     18  C   UNL     1     107.421 106.030 121.763  0.00  0.00    +0.000 C 
ENDBRANCH   8  17
ENDBRANCH   2   9
BRANCH   6  19
ATOM     19  C   UNL     1     102.592 105.977 129.492  0.00  0.00    +0.000 C 
BRANCH  19  20
ATOM     20  C   UNL     1     101.408 105.140 129.968  0.00  0.00    +0.000 C 
BRANCH  20  23
ATOM     21  C   UNL     1     101.739 103.856 132.113  0.00  0.00    +0.000 A 
ATOM     22  C   UNL     1     101.440 104.916 134.226  0.00  0.00    +0.000 A 
ATOM     23  C   UNL     1     101.422 105.055 131.496  0.00  0.00    +0.000 A 
ATOM     24  C   UNL     1     101.749 103.792 133.491  0.00  0.00    +0.000 A 
ATOM     25  C   UNL     1     101.124 106.107 133.621  0.00  0.00    +0.000 A 
ATOM     26  C   UNL     1     101.113 106.176 132.240  0.00  0.00    +0.000 A 
ENDBRANCH  20  23
ENDBRANCH  19  20
ENDBRANCH   6  19
TORSDOF 6
