REMARK minimizedAffinity -7.85767984
REMARK minimizedRMSD -1
REMARK  Name = 04_docking/output/fentanyl.pdb
REMARK  7 active torsions:
REMARK  status: ('A' for Active; 'I' for Inactive)
REMARK    1  A    between atoms: C_2  and  C_16
REMARK    2  A    between atoms: C_2  and  C_17
REMARK    3  A    between atoms: C_5  and  N_23
REMARK    4  A    between atoms: C_9  and  C_10
REMARK    5  A    between atoms: C_10  and  C_11
REMARK    6  A    between atoms: C_12  and  N_23
REMARK    7  A    between atoms: C_16  and  N_24
REMARK                            x       y       z     vdW  Elec       q    Type
REMARK                         _______ _______ _______ _____ _____    ______ ____
ROOT
ATOM      1  C   UNL     1     101.639 103.700 127.046  0.00  0.00    +0.000 C 
ATOM      2  C   UNL     1     102.224 105.113 129.096  0.00  0.00    +0.000 C 
ATOM      3  C   UNL     1     100.712 105.188 129.374  0.00  0.00    +0.000 C 
ATOM      4  C   UNL     1      99.872 104.971 128.114  0.00  0.00    +0.000 C 
ATOM      5  C   UNL     1     102.572 103.882 128.245  0.00  0.00    +0.000 C 
ATOM      6  N   UNL     1     100.235 103.685 127.481  0.00  0.00    +0.000 N 
ATOM      7  H   UNL     1     100.117 102.956 128.185  0.00  0.00    +0.000 HD
ENDROOT
BRANCH   2   9
ATOM      8  C   UNL     1     104.432 105.539 130.213  0.00  0.00    +0.000 C 
ATOM      9  N   UNL     1     103.037 105.222 130.334  0.00  0.00    +0.000 N 
ATOM     10  O   UNL     1     104.829 106.305 129.357  0.00  0.00    +0.000 OA
BRANCH   9  11
ATOM     11  C   UNL     1     102.413 105.029 131.676  0.00  0.00    +0.000 A 
ATOM     12  C   UNL     1     102.073 106.203 132.344  0.00  0.00    +0.000 A 
ATOM     13  C   UNL     1     101.487 106.180 133.598  0.00  0.00    +0.000 A 
ATOM     14  C   UNL     1     101.561 103.782 133.559  0.00  0.00    +0.000 A 
ATOM     15  C   UNL     1     101.231 104.963 134.204  0.00  0.00    +0.000 A 
ATOM     16  C   UNL     1     102.149 103.822 132.303  0.00  0.00    +0.000 A 
ENDBRANCH   9  11
BRANCH   8  17
ATOM     17  C   UNL     1     105.526 104.960 131.129  0.00  0.00    +0.000 C 
ATOM     18  C   UNL     1     106.150 103.704 130.489  0.00  0.00    +0.000 C 
ENDBRANCH   8  17
ENDBRANCH   2   9
BRANCH   6  19
ATOM     19  C   UNL     1      99.344 103.354 126.355  0.00  0.00    +0.000 C 
BRANCH  19  20
ATOM     20  C   UNL     1     100.100 102.779 125.161  0.00  0.00    +0.000 C 
BRANCH  20  23
ATOM     21  C   UNL     1      99.758 100.984 123.423  0.00  0.00    +0.000 A 
ATOM     22  C   UNL     1      97.643  99.914 123.179  0.00  0.00    +0.000 A 
ATOM     23  C   UNL     1      99.223 101.749 124.447  0.00  0.00    +0.000 A 
ATOM     24  C   UNL     1      98.957 100.058 122.788  0.00  0.00    +0.000 A 
ATOM     25  C   UNL     1      97.106 100.669 124.192  0.00  0.00    +0.000 A 
ATOM     26  C   UNL     1      97.905 101.598 124.831  0.00  0.00    +0.000 A 
ENDBRANCH  20  23
ENDBRANCH  19  20
ENDBRANCH   6  19
TORSDOF 6
