REMARK minimizedAffinity -7.89512157
REMARK minimizedRMSD -1
REMARK  Name = 04_docking/output/fentanyl.pdb
REMARK  7 active torsions:
REMARK  status: ('A' for Active; 'I' for Inactive)
REMARK    1  A    between atoms: C_2  and  C_16
REMARK    2  A    between atoms: C_2  and  C_17
REMARK    3  A    between atoms: C_5  and  N_23
REMARK    4  A    between atoms: C_9  and  C_10
REMARK    5  A    between atoms: C_10  and  C_11
REMARK    6  A    between atoms: C_12  and  N_23
REMARK    7  A    between atoms: C_16  and  N_24
REMARK                            x       y       z     vdW  Elec       q    Type
REMARK                         _______ _______ _______ _____ _____    ______ ____
ROOT
ATOM      1  C   UNL     1     101.357 105.654 126.965  0.00  0.00    +0.000 C 
ATOM      2  C   UNL     1     103.335 105.780 128.583  0.00  0.00    +0.000 C 
ATOM      3  C   UNL     1     103.407 107.281 128.249  0.00  0.00    +0.000 C 
ATOM      4  C   UNL     1     102.788 107.610 126.889  0.00  0.00    +0.000 C 
ATOM      5  C   UNL     1     101.931 105.218 128.316  0.00  0.00    +0.000 C 
ATOM      6  N   UNL     1     101.395 107.118 126.837  0.00  0.00    +0.000 N 
ATOM      7  H   UNL     1     100.897 107.529 127.626  0.00  0.00    +0.000 HD
ENDROOT
BRANCH   2   9
ATOM      8  C   UNL     1     105.262 105.426 130.153  0.00  0.00    +0.000 C 
ATOM      9  N   UNL     1     103.843 105.474 129.945  0.00  0.00    +0.000 N 
ATOM     10  O   UNL     1     106.008 106.185 129.565  0.00  0.00    +0.000 OA
BRANCH   9  11
ATOM     11  C   UNL     1     102.898 105.245 131.078  0.00  0.00    +0.000 A 
ATOM     12  C   UNL     1     102.551 106.385 131.798  0.00  0.00    +0.000 A 
ATOM     13  C   UNL     1     101.684 106.326 132.876  0.00  0.00    +0.000 A 
ATOM     14  C   UNL     1     101.479 103.958 132.547  0.00  0.00    +0.000 A 
ATOM     15  C   UNL     1     101.149 105.107 133.248  0.00  0.00    +0.000 A 
ATOM     16  C   UNL     1     102.350 104.034 131.469  0.00  0.00    +0.000 A 
ENDBRANCH   9  11
BRANCH   8  17
ATOM     17  C   UNL     1     105.956 104.442 131.114  0.00  0.00    +0.000 C 
ATOM     18  C   UNL     1     106.459 103.207 130.341  0.00  0.00    +0.000 C 
ENDBRANCH   8  17
ENDBRANCH   2   9
BRANCH   6  19
ATOM     19  C   UNL     1     100.703 107.550 125.610  0.00  0.00    +0.000 C 
BRANCH  19  20
ATOM     20  C   UNL     1     101.616 108.330 124.668  0.00  0.00    +0.000 C 
BRANCH  20  23
ATOM     21  C   UNL     1     103.050 106.737 123.338  0.00  0.00    +0.000 A 
ATOM     22  C   UNL     1     102.376 106.012 121.171  0.00  0.00    +0.000 A 
ATOM     23  C   UNL     1     101.893 107.496 123.415  0.00  0.00    +0.000 A 
ATOM     24  C   UNL     1     103.287 105.989 122.204  0.00  0.00    +0.000 A 
ATOM     25  C   UNL     1     101.228 106.763 121.240  0.00  0.00    +0.000 A 
ATOM     26  C   UNL     1     100.986 107.514 122.374  0.00  0.00    +0.000 A 
ENDBRANCH  20  23
ENDBRANCH  19  20
ENDBRANCH   6  19
TORSDOF 6
