REMARK minimizedAffinity -8.28516197
REMARK minimizedRMSD -1
REMARK  Name = 04_docking/output/fentanyl.pdb
REMARK  7 active torsions:
REMARK  status: ('A' for Active; 'I' for Inactive)
REMARK    1  A    between atoms: C_2  and  C_16
REMARK    2  A    between atoms: C_2  and  C_17
REMARK    3  A    between atoms: C_5  and  N_23
REMARK    4  A    between atoms: C_9  and  C_10
REMARK    5  A    between atoms: C_10  and  C_11
REMARK    6  A    between atoms: C_12  and  N_23
REMARK    7  A    between atoms: C_16  and  N_24
REMARK                            x       y       z     vdW  Elec       q    Type
REMARK                         _______ _______ _______ _____ _____    ______ ____
ROOT
ATOM      1  C   UNL     1     105.359 106.800 128.554  0.00  0.00    +0.000 C 
ATOM      2  C   UNL     1     106.270 105.436 126.592  0.00  0.00    +0.000 C 
ATOM      3  C   UNL     1     106.221 104.213 127.525  0.00  0.00    +0.000 C 
ATOM      4  C   UNL     1     106.275 104.600 129.004  0.00  0.00    +0.000 C 
ATOM      5  C   UNL     1     105.289 106.525 127.051  0.00  0.00    +0.000 C 
ATOM      6  N   UNL     1     105.189 105.554 129.316  0.00  0.00    +0.000 N 
ATOM      7  H   UNL     1     104.311 105.116 129.036  0.00  0.00    +0.000 HD
ENDROOT
BRANCH   2   9
ATOM      8  C   UNL     1     106.902 105.765 124.184  0.00  0.00    +0.000 C 
ATOM      9  N   UNL     1     106.115 105.068 125.161  0.00  0.00    +0.000 N 
ATOM     10  O   UNL     1     108.041 106.113 124.428  0.00  0.00    +0.000 OA
BRANCH   9  11
ATOM     11  C   UNL     1     105.179 103.981 124.750  0.00  0.00    +0.000 A 
ATOM     12  C   UNL     1     105.784 102.768 124.431  0.00  0.00    +0.000 A 
ATOM     13  C   UNL     1     105.041 101.669 124.033  0.00  0.00    +0.000 A 
ATOM     14  C   UNL     1     103.040 102.973 124.261  0.00  0.00    +0.000 A 
ATOM     15  C   UNL     1     103.665 101.777 123.949  0.00  0.00    +0.000 A 
ATOM     16  C   UNL     1     103.799 104.065 124.658  0.00  0.00    +0.000 A 
ENDBRANCH   9  11
BRANCH   8  17
ATOM     17  C   UNL     1     106.397 106.127 122.775  0.00  0.00    +0.000 C 
ATOM     18  C   UNL     1     107.552 106.046 121.756  0.00  0.00    +0.000 C 
ENDBRANCH   8  17
ENDBRANCH   2   9
BRANCH   6  19
ATOM     19  C   UNL     1     105.099 105.834 130.759  0.00  0.00    +0.000 C 
BRANCH  19  20
ATOM     20  C   UNL     1     104.763 104.590 131.576  0.00  0.00    +0.000 C 
BRANCH  20  23
ATOM     21  C   UNL     1     102.985 106.110 132.520  0.00  0.00    +0.000 A 
ATOM     22  C   UNL     1     101.140 105.218 133.735  0.00  0.00    +0.000 A 
ATOM     23  C   UNL     1     103.463 104.821 132.350  0.00  0.00    +0.000 A 
ATOM     24  C   UNL     1     101.812 106.305 133.218  0.00  0.00    +0.000 A 
ATOM     25  C   UNL     1     101.608 103.938 133.572  0.00  0.00    +0.000 A 
ATOM     26  C   UNL     1     102.783 103.738 132.873  0.00  0.00    +0.000 A 
ENDBRANCH  20  23
ENDBRANCH  19  20
ENDBRANCH   6  19
TORSDOF 6
