REMARK minimizedAffinity -7.5495491
REMARK minimizedRMSD -1
REMARK  Name = 04_docking/output/fentanyl.pdb
REMARK  7 active torsions:
REMARK  status: ('A' for Active; 'I' for Inactive)
REMARK    1  A    between atoms: C_2  and  C_16
REMARK    2  A    between atoms: C_2  and  C_17
REMARK    3  A    between atoms: C_5  and  N_23
REMARK    4  A    between atoms: C_9  and  C_10
REMARK    5  A    between atoms: C_10  and  C_11
REMARK    6  A    between atoms: C_12  and  N_23
REMARK    7  A    between atoms: C_16  and  N_24
REMARK                            x       y       z     vdW  Elec       q    Type
REMARK                         _______ _______ _______ _____ _____    ______ ____
ROOT
ATOM      1  C   UNL     1     101.986 105.265 130.177  0.00  0.00    +0.000 C 
ATOM      2  C   UNL     1     102.937 106.613 128.222  0.00  0.00    +0.000 C 
ATOM      3  C   UNL     1     104.009 107.123 129.202  0.00  0.00    +0.000 C 
ATOM      4  C   UNL     1     103.552 107.052 130.661  0.00  0.00    +0.000 C 
ATOM      5  C   UNL     1     102.348 105.273 128.691  0.00  0.00    +0.000 C 
ATOM      6  N   UNL     1     103.140 105.671 130.993  0.00  0.00    +0.000 N 
ATOM      7  H   UNL     1     103.926 105.059 130.777  0.00  0.00    +0.000 HD
ENDROOT
BRANCH   2   9
ATOM      8  C   UNL     1     102.679 107.318 125.826  0.00  0.00    +0.000 C 
ATOM      9  N   UNL     1     103.417 106.586 126.816  0.00  0.00    +0.000 N 
ATOM     10  O   UNL     1     102.156 108.383 126.094  0.00  0.00    +0.000 OA
BRANCH   9  11
ATOM     11  C   UNL     1     104.651 105.835 126.446  0.00  0.00    +0.000 A 
ATOM     12  C   UNL     1     105.829 106.578 126.482  0.00  0.00    +0.000 A 
ATOM     13  C   UNL     1     107.053 106.014 126.163  0.00  0.00    +0.000 A 
ATOM     14  C   UNL     1     105.951 103.921 125.754  0.00  0.00    +0.000 A 
ATOM     15  C   UNL     1     107.109 104.681 125.798  0.00  0.00    +0.000 A 
ATOM     16  C   UNL     1     104.733 104.502 126.077  0.00  0.00    +0.000 A 
ENDBRANCH   9  11
BRANCH   8  17
ATOM     17  C   UNL     1     102.486 106.842 124.374  0.00  0.00    +0.000 C 
ATOM     18  C   UNL     1     101.898 107.978 123.513  0.00  0.00    +0.000 C 
ENDBRANCH   8  17
ENDBRANCH   2   9
BRANCH   6  19
ATOM     19  C   UNL     1     102.844 105.515 132.427  0.00  0.00    +0.000 C 
BRANCH  19  20
ATOM     20  C   UNL     1     101.412 105.912 132.776  0.00  0.00    +0.000 C 
BRANCH  20  23
ATOM     21  C   UNL     1     101.049 106.561 135.186  0.00  0.00    +0.000 A 
ATOM     22  C   UNL     1     101.459 108.790 135.922  0.00  0.00    +0.000 A 
ATOM     23  C   UNL     1     101.428 106.941 133.909  0.00  0.00    +0.000 A 
ATOM     24  C   UNL     1     101.068 107.497 136.199  0.00  0.00    +0.000 A 
ATOM     25  C   UNL     1     101.834 109.174 134.658  0.00  0.00    +0.000 A 
ATOM     26  C   UNL     1     101.817 108.239 133.640  0.00  0.00    +0.000 A 
ENDBRANCH  20  23
ENDBRANCH  19  20
ENDBRANCH   6  19
TORSDOF 6
