REMARK minimizedAffinity -7.9395256
REMARK minimizedRMSD -1
REMARK  Name = 04_docking/output/fentanyl.pdb
REMARK  7 active torsions:
REMARK  status: ('A' for Active; 'I' for Inactive)
REMARK    1  A    between atoms: C_2  and  C_16
REMARK    2  A    between atoms: C_2  and  C_17
REMARK    3  A    between atoms: C_5  and  N_23
REMARK    4  A    between atoms: C_9  and  C_10
REMARK    5  A    between atoms: C_10  and  C_11
REMARK    6  A    between atoms: C_12  and  N_23
REMARK    7  A    between atoms: C_16  and  N_24
REMARK                            x       y       z     vdW  Elec       q    Type
REMARK                         _______ _______ _______ _____ _____    ______ ____
ROOT
ATOM      1  C   UNL     1     102.892 107.371 126.546  0.00  0.00    +0.000 C 
ATOM      2  C   UNL     1     103.162 105.795 128.543  0.00  0.00    +0.000 C 
ATOM      3  C   UNL     1     103.634 104.731 127.535  0.00  0.00    +0.000 C 
ATOM      4  C   UNL     1     103.119 104.995 126.119  0.00  0.00    +0.000 C 
ATOM      5  C   UNL     1     103.369 107.214 127.991  0.00  0.00    +0.000 C 
ATOM      6  N   UNL     1     103.510 106.353 125.684  0.00  0.00    +0.000 N 
ATOM      7  H   UNL     1     104.524 106.419 125.772  0.00  0.00    +0.000 HD
ENDROOT
BRANCH   2   9
ATOM      8  C   UNL     1     105.166 105.723 130.055  0.00  0.00    +0.000 C 
ATOM      9  N   UNL     1     103.745 105.597 129.895  0.00  0.00    +0.000 N 
ATOM     10  O   UNL     1     105.798 106.544 129.418  0.00  0.00    +0.000 OA
BRANCH   9  11
ATOM     11  C   UNL     1     102.870 105.297 131.066  0.00  0.00    +0.000 A 
ATOM     12  C   UNL     1     102.565 106.392 131.872  0.00  0.00    +0.000 A 
ATOM     13  C   UNL     1     101.764 106.265 132.994  0.00  0.00    +0.000 A 
ATOM     14  C   UNL     1     101.543 103.919 132.539  0.00  0.00    +0.000 A 
ATOM     15  C   UNL     1     101.253 105.023 133.324  0.00  0.00    +0.000 A 
ATOM     16  C   UNL     1     102.348 104.063 131.417  0.00  0.00    +0.000 A 
ENDBRANCH   9  11
BRANCH   8  17
ATOM     17  C   UNL     1     106.001 104.860 131.019  0.00  0.00    +0.000 C 
ATOM     18  C   UNL     1     106.345 103.508 130.364  0.00  0.00    +0.000 C 
ENDBRANCH   8  17
ENDBRANCH   2   9
BRANCH   6  19
ATOM     19  C   UNL     1     103.177 106.596 124.270  0.00  0.00    +0.000 C 
BRANCH  19  20
ATOM     20  C   UNL     1     103.574 105.433 123.367  0.00  0.00    +0.000 C 
BRANCH  20  23
ATOM     21  C   UNL     1     106.040 105.894 123.634  0.00  0.00    +0.000 A 
ATOM     22  C   UNL     1     107.444 106.149 121.726  0.00  0.00    +0.000 A 
ATOM     23  C   UNL     1     104.965 105.689 122.783  0.00  0.00    +0.000 A 
ATOM     24  C   UNL     1     107.288 106.124 123.095  0.00  0.00    +0.000 A 
ATOM     25  C   UNL     1     106.384 105.949 120.877  0.00  0.00    +0.000 A 
ATOM     26  C   UNL     1     105.131 105.718 121.412  0.00  0.00    +0.000 A 
ENDBRANCH  20  23
ENDBRANCH  19  20
ENDBRANCH   6  19
TORSDOF 6
