REMARK minimizedAffinity -7.53472137
REMARK minimizedRMSD -1
REMARK  Name = 04_docking/output/fentanyl.pdb
REMARK  7 active torsions:
REMARK  status: ('A' for Active; 'I' for Inactive)
REMARK    1  A    between atoms: C_2  and  C_16
REMARK    2  A    between atoms: C_2  and  C_17
REMARK    3  A    between atoms: C_5  and  N_23
REMARK    4  A    between atoms: C_9  and  C_10
REMARK    5  A    between atoms: C_10  and  C_11
REMARK    6  A    between atoms: C_12  and  N_23
REMARK    7  A    between atoms: C_16  and  N_24
REMARK                            x       y       z     vdW  Elec       q    Type
REMARK                         _______ _______ _______ _____ _____    ______ ____
ROOT
ATOM      1  C   UNL     1     102.899 107.613 127.017  0.00  0.00    +0.000 C 
ATOM      2  C   UNL     1     102.998 106.019 129.014  0.00  0.00    +0.000 C 
ATOM      3  C   UNL     1     103.138 104.877 127.991  0.00  0.00    +0.000 C 
ATOM      4  C   UNL     1     102.569 105.245 126.620  0.00  0.00    +0.000 C 
ATOM      5  C   UNL     1     103.457 107.358 128.419  0.00  0.00    +0.000 C 
ATOM      6  N   UNL     1     103.204 106.485 126.126  0.00  0.00    +0.000 N 
ATOM      7  H   UNL     1     104.213 106.330 126.125  0.00  0.00    +0.000 HD
ENDROOT
BRANCH   2   9
ATOM      8  C   UNL     1     105.074 105.637 130.375  0.00  0.00    +0.000 C 
ATOM      9  N   UNL     1     103.641 105.701 130.315  0.00  0.00    +0.000 N 
ATOM     10  O   UNL     1     105.763 106.391 129.715  0.00  0.00    +0.000 OA
BRANCH   9  11
ATOM     11  C   UNL     1     102.817 105.475 131.538  0.00  0.00    +0.000 A 
ATOM     12  C   UNL     1     102.411 104.159 131.744  0.00  0.00    +0.000 A 
ATOM     13  C   UNL     1     101.641 103.799 132.837  0.00  0.00    +0.000 A 
ATOM     14  C   UNL     1     101.655 106.086 133.565  0.00  0.00    +0.000 A 
ATOM     15  C   UNL     1     101.264 104.769 133.748  0.00  0.00    +0.000 A 
ATOM     16  C   UNL     1     102.426 106.430 132.464  0.00  0.00    +0.000 A 
ENDBRANCH   9  11
BRANCH   8  17
ATOM     17  C   UNL     1     105.853 104.641 131.254  0.00  0.00    +0.000 C 
ATOM     18  C   UNL     1     106.271 103.411 130.425  0.00  0.00    +0.000 C 
ENDBRANCH   8  17
ENDBRANCH   2   9
BRANCH   6  19
ATOM     19  C   UNL     1     102.808 106.793 124.741  0.00  0.00    +0.000 C 
BRANCH  19  20
ATOM     20  C   UNL     1     101.820 107.953 124.660  0.00  0.00    +0.000 C 
BRANCH  20  23
ATOM     21  C   UNL     1      99.362 107.480 124.974  0.00  0.00    +0.000 A 
ATOM     22  C   UNL     1      98.071 106.524 123.215  0.00  0.00    +0.000 A 
ATOM     23  C   UNL     1     100.472 107.442 124.146  0.00  0.00    +0.000 A 
ATOM     24  C   UNL     1      98.153 107.018 124.499  0.00  0.00    +0.000 A 
ATOM     25  C   UNL     1      99.167 106.482 122.389  0.00  0.00    +0.000 A 
ATOM     26  C   UNL     1     100.381 106.944 122.861  0.00  0.00    +0.000 A 
ENDBRANCH  20  23
ENDBRANCH  19  20
ENDBRANCH   6  19
TORSDOF 6
