REMARK minimizedAffinity -7.48184729
REMARK minimizedRMSD -1
REMARK  Name = 04_docking/output/fentanyl.pdb
REMARK  7 active torsions:
REMARK  status: ('A' for Active; 'I' for Inactive)
REMARK    1  A    between atoms: C_2  and  C_16
REMARK    2  A    between atoms: C_2  and  C_17
REMARK    3  A    between atoms: C_5  and  N_23
REMARK    4  A    between atoms: C_9  and  C_10
REMARK    5  A    between atoms: C_10  and  C_11
REMARK    6  A    between atoms: C_12  and  N_23
REMARK    7  A    between atoms: C_16  and  N_24
REMARK                            x       y       z     vdW  Elec       q    Type
REMARK                         _______ _______ _______ _____ _____    ______ ____
ROOT
ATOM      1  C   UNL     1     100.592 104.676 127.248  0.00  0.00    +0.000 C 
ATOM      2  C   UNL     1     101.932 104.260 129.386  0.00  0.00    +0.000 C 
ATOM      3  C   UNL     1     102.706 103.190 128.595  0.00  0.00    +0.000 C 
ATOM      4  C   UNL     1     101.909 102.647 127.407  0.00  0.00    +0.000 C 
ATOM      5  C   UNL     1     101.308 105.302 128.446  0.00  0.00    +0.000 C 
ATOM      6  N   UNL     1     101.490 103.760 126.530  0.00  0.00    +0.000 N 
ATOM      7  H   UNL     1     102.333 104.270 126.262  0.00  0.00    +0.000 HD
ENDROOT
BRANCH   2   9
ATOM      8  C   UNL     1     104.057 105.347 130.166  0.00  0.00    +0.000 C 
ATOM      9  N   UNL     1     102.743 104.860 130.476  0.00  0.00    +0.000 N 
ATOM     10  O   UNL     1     104.293 105.879 129.098  0.00  0.00    +0.000 OA
BRANCH   9  11
ATOM     11  C   UNL     1     102.195 104.975 131.859  0.00  0.00    +0.000 A 
ATOM     12  C   UNL     1     101.961 106.277 132.296  0.00  0.00    +0.000 A 
ATOM     13  C   UNL     1     101.454 106.539 133.558  0.00  0.00    +0.000 A 
ATOM     14  C   UNL     1     101.397 104.180 133.995  0.00  0.00    +0.000 A 
ATOM     15  C   UNL     1     101.172 105.484 134.406  0.00  0.00    +0.000 A 
ATOM     16  C   UNL     1     101.906 103.935 132.727  0.00  0.00    +0.000 A 
ENDBRANCH   9  11
BRANCH   8  17
ATOM     17  C   UNL     1     105.258 105.250 131.125  0.00  0.00    +0.000 C 
ATOM     18  C   UNL     1     106.005 103.918 130.913  0.00  0.00    +0.000 C 
ENDBRANCH   8  17
ENDBRANCH   2   9
BRANCH   6  19
ATOM     19  C   UNL     1     100.859 103.277 125.290  0.00  0.00    +0.000 C 
BRANCH  19  20
ATOM     20  C   UNL     1     101.687 103.596 124.049  0.00  0.00    +0.000 C 
BRANCH  20  23
ATOM     21  C   UNL     1     104.119 103.137 124.535  0.00  0.00    +0.000 A 
ATOM     22  C   UNL     1     105.112 101.058 123.928  0.00  0.00    +0.000 A 
ATOM     23  C   UNL     1     102.919 102.689 124.008  0.00  0.00    +0.000 A 
ATOM     24  C   UNL     1     105.222 102.310 124.494  0.00  0.00    +0.000 A 
ATOM     25  C   UNL     1     103.926 100.607 123.403  0.00  0.00    +0.000 A 
ATOM     26  C   UNL     1     102.818 101.433 123.442  0.00  0.00    +0.000 A 
ENDBRANCH  20  23
ENDBRANCH  19  20
ENDBRANCH   6  19
TORSDOF 6
