REMARK minimizedAffinity -8.09605408
REMARK minimizedRMSD -1
REMARK  Name = 04_docking/output/fentanyl.pdb
REMARK  7 active torsions:
REMARK  status: ('A' for Active; 'I' for Inactive)
REMARK    1  A    between atoms: C_2  and  C_16
REMARK    2  A    between atoms: C_2  and  C_17
REMARK    3  A    between atoms: C_5  and  N_23
REMARK    4  A    between atoms: C_9  and  C_10
REMARK    5  A    between atoms: C_10  and  C_11
REMARK    6  A    between atoms: C_12  and  N_23
REMARK    7  A    between atoms: C_16  and  N_24
REMARK                            x       y       z     vdW  Elec       q    Type
REMARK                         _______ _______ _______ _____ _____    ______ ____
ROOT
ATOM      1  C   UNL     1     105.645 105.322 128.980  0.00  0.00    +0.000 C 
ATOM      2  C   UNL     1     103.621 106.104 130.334  0.00  0.00    +0.000 C 
ATOM      3  C   UNL     1     103.409 107.172 129.246  0.00  0.00    +0.000 C 
ATOM      4  C   UNL     1     104.695 107.496 128.483  0.00  0.00    +0.000 C 
ATOM      5  C   UNL     1     104.415 104.907 129.791  0.00  0.00    +0.000 C 
ATOM      6  N   UNL     1     105.268 106.259 127.912  0.00  0.00    +0.000 N 
ATOM      7  H   UNL     1     104.545 105.827 127.336  0.00  0.00    +0.000 HD
ENDROOT
BRANCH   2   9
ATOM      8  C   UNL     1     102.294 105.765 132.439  0.00  0.00    +0.000 C 
ATOM      9  N   UNL     1     102.354 105.716 131.006  0.00  0.00    +0.000 N 
ATOM     10  O   UNL     1     102.874 106.634 133.061  0.00  0.00    +0.000 OA
BRANCH   9  11
ATOM     11  C   UNL     1     101.162 105.305 130.207  0.00  0.00    +0.000 A 
ATOM     12  C   UNL     1      99.937 105.743 130.705  0.00  0.00    +0.000 A 
ATOM     13  C   UNL     1      98.745 105.439 130.069  0.00  0.00    +0.000 A 
ATOM     14  C   UNL     1      99.975 104.234 128.398  0.00  0.00    +0.000 A 
ATOM     15  C   UNL     1      98.769 104.682 128.912  0.00  0.00    +0.000 A 
ATOM     16  C   UNL     1     101.161 104.547 129.047  0.00  0.00    +0.000 A 
ENDBRANCH   9  11
BRANCH   8  17
ATOM     17  C   UNL     1     101.512 104.756 133.301  0.00  0.00    +0.000 C 
ATOM     18  C   UNL     1     102.203 103.378 133.269  0.00  0.00    +0.000 C 
ENDBRANCH   8  17
ENDBRANCH   2   9
BRANCH   6  19
ATOM     19  C   UNL     1     106.418 106.538 127.035  0.00  0.00    +0.000 C 
BRANCH  19  20
ATOM     20  C   UNL     1     107.002 105.271 126.417  0.00  0.00    +0.000 C 
BRANCH  20  23
ATOM     21  C   UNL     1     106.076 104.563 124.180  0.00  0.00    +0.000 A 
ATOM     22  C   UNL     1     106.860 105.564 122.165  0.00  0.00    +0.000 A 
ATOM     23  C   UNL     1     106.947 105.373 124.891  0.00  0.00    +0.000 A 
ATOM     24  C   UNL     1     106.035 104.665 122.806  0.00  0.00    +0.000 A 
ATOM     25  C   UNL     1     107.727 106.369 122.863  0.00  0.00    +0.000 A 
ATOM     26  C   UNL     1     107.771 106.270 124.241  0.00  0.00    +0.000 A 
ENDBRANCH  20  23
ENDBRANCH  19  20
ENDBRANCH   6  19
TORSDOF 6
