REMARK minimizedAffinity -8.00197506
REMARK minimizedRMSD -1
REMARK  Name = 04_docking/output/fentanyl.pdb
REMARK  7 active torsions:
REMARK  status: ('A' for Active; 'I' for Inactive)
REMARK    1  A    between atoms: C_2  and  C_16
REMARK    2  A    between atoms: C_2  and  C_17
REMARK    3  A    between atoms: C_5  and  N_23
REMARK    4  A    between atoms: C_9  and  C_10
REMARK    5  A    between atoms: C_10  and  C_11
REMARK    6  A    between atoms: C_12  and  N_23
REMARK    7  A    between atoms: C_16  and  N_24
REMARK                            x       y       z     vdW  Elec       q    Type
REMARK                         _______ _______ _______ _____ _____    ______ ____
ROOT
ATOM      1  C   UNL     1     104.129 105.101 128.160  0.00  0.00    +0.000 C 
ATOM      2  C   UNL     1     104.335 104.768 125.632  0.00  0.00    +0.000 C 
ATOM      3  C   UNL     1     102.999 104.006 125.707  0.00  0.00    +0.000 C 
ATOM      4  C   UNL     1     102.728 103.431 127.098  0.00  0.00    +0.000 C 
ATOM      5  C   UNL     1     104.489 105.736 126.815  0.00  0.00    +0.000 C 
ATOM      6  N   UNL     1     102.785 104.509 128.109  0.00  0.00    +0.000 N 
ATOM      7  H   UNL     1     102.120 105.228 127.823  0.00  0.00    +0.000 HD
ENDROOT
BRANCH   2   9
ATOM      8  C   UNL     1     105.819 105.240 123.663  0.00  0.00    +0.000 C 
ATOM      9  N   UNL     1     104.550 105.412 124.311  0.00  0.00    +0.000 N 
ATOM     10  O   UNL     1     106.430 104.192 123.747  0.00  0.00    +0.000 OA
BRANCH   9  11
ATOM     11  C   UNL     1     103.463 106.201 123.660  0.00  0.00    +0.000 A 
ATOM     12  C   UNL     1     103.004 105.688 122.450  0.00  0.00    +0.000 A 
ATOM     13  C   UNL     1     101.998 106.313 121.732  0.00  0.00    +0.000 A 
ATOM     14  C   UNL     1     101.876 108.005 123.430  0.00  0.00    +0.000 A 
ATOM     15  C   UNL     1     101.435 107.475 122.228  0.00  0.00    +0.000 A 
ATOM     16  C   UNL     1     102.885 107.366 124.137  0.00  0.00    +0.000 A 
ENDBRANCH   9  11
BRANCH   8  17
ATOM     17  C   UNL     1     106.509 106.331 122.823  0.00  0.00    +0.000 C 
ATOM     18  C   UNL     1     106.689 105.853 121.369  0.00  0.00    +0.000 C 
ENDBRANCH   8  17
ENDBRANCH   2   9
BRANCH   6  19
ATOM     19  C   UNL     1     102.373 104.036 129.442  0.00  0.00    +0.000 C 
BRANCH  19  20
ATOM     20  C   UNL     1     101.153 104.782 129.976  0.00  0.00    +0.000 C 
BRANCH  20  23
ATOM     21  C   UNL     1     101.000 106.125 132.105  0.00  0.00    +0.000 A 
ATOM     22  C   UNL     1     101.441 105.115 134.217  0.00  0.00    +0.000 A 
ATOM     23  C   UNL     1     101.254 104.906 131.497  0.00  0.00    +0.000 A 
ATOM     24  C   UNL     1     101.093 106.225 133.477  0.00  0.00    +0.000 A 
ATOM     25  C   UNL     1     101.696 103.904 133.622  0.00  0.00    +0.000 A 
ATOM     26  C   UNL     1     101.603 103.800 132.247  0.00  0.00    +0.000 A 
ENDBRANCH  20  23
ENDBRANCH  19  20
ENDBRANCH   6  19
TORSDOF 6
