REMARK minimizedAffinity -7.52276182
REMARK minimizedRMSD -1
REMARK  Name = 04_docking/output/fentanyl.pdb
REMARK  7 active torsions:
REMARK  status: ('A' for Active; 'I' for Inactive)
REMARK    1  A    between atoms: C_2  and  C_16
REMARK    2  A    between atoms: C_2  and  C_17
REMARK    3  A    between atoms: C_5  and  N_23
REMARK    4  A    between atoms: C_9  and  C_10
REMARK    5  A    between atoms: C_10  and  C_11
REMARK    6  A    between atoms: C_12  and  N_23
REMARK    7  A    between atoms: C_16  and  N_24
REMARK                            x       y       z     vdW  Elec       q    Type
REMARK                         _______ _______ _______ _____ _____    ______ ____
ROOT
ATOM      1  C   UNL     1     106.110 104.948 128.393  0.00  0.00    +0.000 C 
ATOM      2  C   UNL     1     105.022 104.965 126.079  0.00  0.00    +0.000 C 
ATOM      3  C   UNL     1     103.746 104.444 126.764  0.00  0.00    +0.000 C 
ATOM      4  C   UNL     1     104.040 103.725 128.082  0.00  0.00    +0.000 C 
ATOM      5  C   UNL     1     105.927 105.704 127.075  0.00  0.00    +0.000 C 
ATOM      6  N   UNL     1     104.805 104.613 128.982  0.00  0.00    +0.000 N 
ATOM      7  H   UNL     1     104.265 105.472 129.093  0.00  0.00    +0.000 HD
ENDROOT
BRANCH   2   9
ATOM      8  C   UNL     1     103.665 106.712 124.892  0.00  0.00    +0.000 C 
ATOM      9  N   UNL     1     104.730 105.751 124.852  0.00  0.00    +0.000 N 
ATOM     10  O   UNL     1     103.442 107.362 125.895  0.00  0.00    +0.000 OA
BRANCH   9  11
ATOM     11  C   UNL     1     105.542 105.564 123.615  0.00  0.00    +0.000 A 
ATOM     12  C   UNL     1     106.725 106.297 123.566  0.00  0.00    +0.000 A 
ATOM     13  C   UNL     1     107.580 106.224 122.479  0.00  0.00    +0.000 A 
ATOM     14  C   UNL     1     106.081 104.665 121.439  0.00  0.00    +0.000 A 
ATOM     15  C   UNL     1     107.253 105.404 121.415  0.00  0.00    +0.000 A 
ATOM     16  C   UNL     1     105.235 104.750 122.536  0.00  0.00    +0.000 A 
ENDBRANCH   9  11
BRANCH   8  17
ATOM     17  C   UNL     1     102.731 107.007 123.703  0.00  0.00    +0.000 C 
ATOM     18  C   UNL     1     101.773 108.164 124.050  0.00  0.00    +0.000 C 
ENDBRANCH   8  17
ENDBRANCH   2   9
BRANCH   6  19
ATOM     19  C   UNL     1     104.974 104.026 130.323  0.00  0.00    +0.000 C 
BRANCH  19  20
ATOM     20  C   UNL     1     104.931 105.075 131.430  0.00  0.00    +0.000 C 
BRANCH  20  23
ATOM     21  C   UNL     1     102.861 106.098 132.446  0.00  0.00    +0.000 A 
ATOM     22  C   UNL     1     101.253 104.738 133.561  0.00  0.00    +0.000 A 
ATOM     23  C   UNL     1     103.610 104.960 132.194  0.00  0.00    +0.000 A 
ATOM     24  C   UNL     1     101.672 105.980 133.134  0.00  0.00    +0.000 A 
ATOM     25  C   UNL     1     101.990 103.606 133.315  0.00  0.00    +0.000 A 
ATOM     26  C   UNL     1     103.183 103.719 132.626  0.00  0.00    +0.000 A 
ENDBRANCH  20  23
ENDBRANCH  19  20
ENDBRANCH   6  19
TORSDOF 6
