REMARK minimizedAffinity -8.45873737
REMARK minimizedRMSD -1
REMARK  Name = 04_docking/output/fentanyl.pdb
REMARK  7 active torsions:
REMARK  status: ('A' for Active; 'I' for Inactive)
REMARK    1  A    between atoms: C_2  and  C_16
REMARK    2  A    between atoms: C_2  and  C_17
REMARK    3  A    between atoms: C_5  and  N_23
REMARK    4  A    between atoms: C_9  and  C_10
REMARK    5  A    between atoms: C_10  and  C_11
REMARK    6  A    between atoms: C_12  and  N_23
REMARK    7  A    between atoms: C_16  and  N_24
REMARK                            x       y       z     vdW  Elec       q    Type
REMARK                         _______ _______ _______ _____ _____    ______ ____
ROOT
ATOM      1  C   UNL     1     105.676 105.015 128.296  0.00  0.00    +0.000 C 
ATOM      2  C   UNL     1     103.514 105.611 129.525  0.00  0.00    +0.000 C 
ATOM      3  C   UNL     1     103.386 106.799 128.555  0.00  0.00    +0.000 C 
ATOM      4  C   UNL     1     104.732 107.224 127.966  0.00  0.00    +0.000 C 
ATOM      5  C   UNL     1     104.382 104.495 128.926  0.00  0.00    +0.000 C 
ATOM      6  N   UNL     1     105.384 106.069 127.313  0.00  0.00    +0.000 N 
ATOM      7  H   UNL     1     104.730 105.702 126.622  0.00  0.00    +0.000 HD
ENDROOT
BRANCH   2   9
ATOM      8  C   UNL     1     101.242 104.646 129.062  0.00  0.00    +0.000 C 
ATOM      9  N   UNL     1     102.196 105.133 130.018  0.00  0.00    +0.000 N 
ATOM     10  O   UNL     1     101.599 104.022 128.082  0.00  0.00    +0.000 OA
BRANCH   9  11
ATOM     11  C   UNL     1     101.880 105.137 131.476  0.00  0.00    +0.000 A 
ATOM     12  C   UNL     1     101.989 103.901 132.108  0.00  0.00    +0.000 A 
ATOM     13  C   UNL     1     101.726 103.751 133.459  0.00  0.00    +0.000 A 
ATOM     14  C   UNL     1     101.229 106.095 133.594  0.00  0.00    +0.000 A 
ATOM     15  C   UNL     1     101.345 104.855 134.201  0.00  0.00    +0.000 A 
ATOM     16  C   UNL     1     101.496 106.228 132.239  0.00  0.00    +0.000 A 
ENDBRANCH   9  11
BRANCH   8  17
ATOM     17  C   UNL     1      99.722 104.858 129.183  0.00  0.00    +0.000 C 
ATOM     18  C   UNL     1      99.020 104.453 127.871  0.00  0.00    +0.000 C 
ENDBRANCH   8  17
ENDBRANCH   2   9
BRANCH   6  19
ATOM     19  C   UNL     1     106.608 106.462 126.593  0.00  0.00    +0.000 C 
BRANCH  19  20
ATOM     20  C   UNL     1     107.295 105.277 125.919  0.00  0.00    +0.000 C 
BRANCH  20  23
ATOM     21  C   UNL     1     107.843 106.227 123.648  0.00  0.00    +0.000 A 
ATOM     22  C   UNL     1     106.684 105.480 121.704  0.00  0.00    +0.000 A 
ATOM     23  C   UNL     1     107.080 105.353 124.406  0.00  0.00    +0.000 A 
ATOM     24  C   UNL     1     107.641 106.285 122.285  0.00  0.00    +0.000 A 
ATOM     25  C   UNL     1     105.924 104.613 122.450  0.00  0.00    +0.000 A 
ATOM     26  C   UNL     1     106.123 104.551 123.816  0.00  0.00    +0.000 A 
ENDBRANCH  20  23
ENDBRANCH  19  20
ENDBRANCH   6  19
TORSDOF 6
