REMARK minimizedAffinity -6.85971165
REMARK minimizedRMSD -1
REMARK  Name = 04_docking/output/fentanyl.pdb
REMARK  7 active torsions:
REMARK  status: ('A' for Active; 'I' for Inactive)
REMARK    1  A    between atoms: C_2  and  C_16
REMARK    2  A    between atoms: C_2  and  C_17
REMARK    3  A    between atoms: C_5  and  N_23
REMARK    4  A    between atoms: C_9  and  C_10
REMARK    5  A    between atoms: C_10  and  C_11
REMARK    6  A    between atoms: C_12  and  N_23
REMARK    7  A    between atoms: C_16  and  N_24
REMARK                            x       y       z     vdW  Elec       q    Type
REMARK                         _______ _______ _______ _____ _____    ______ ____
ROOT
ATOM      1  C   UNL     1     100.813 103.212 124.328  0.00  0.00    +0.000 C 
ATOM      2  C   UNL     1     102.494 104.610 125.655  0.00  0.00    +0.000 C 
ATOM      3  C   UNL     1     101.485 104.573 126.816  0.00  0.00    +0.000 C 
ATOM      4  C   UNL     1     100.051 104.330 126.340  0.00  0.00    +0.000 C 
ATOM      5  C   UNL     1     102.282 103.428 124.697  0.00  0.00    +0.000 C 
ATOM      6  N   UNL     1      99.989 103.089 125.540  0.00  0.00    +0.000 N 
ATOM      7  H   UNL     1     100.365 102.336 126.117  0.00  0.00    +0.000 HD
ENDROOT
BRANCH   2   9
ATOM      8  C   UNL     1     104.901 105.148 125.181  0.00  0.00    +0.000 C 
ATOM      9  N   UNL     1     103.898 104.743 126.124  0.00  0.00    +0.000 N 
ATOM     10  O   UNL     1     104.650 105.954 124.306  0.00  0.00    +0.000 OA
BRANCH   9  11
ATOM     11  C   UNL     1     104.253 104.486 127.550  0.00  0.00    +0.000 A 
ATOM     12  C   UNL     1     104.539 105.622 128.304  0.00  0.00    +0.000 A 
ATOM     13  C   UNL     1     104.884 105.537 129.642  0.00  0.00    +0.000 A 
ATOM     14  C   UNL     1     104.669 103.150 129.519  0.00  0.00    +0.000 A 
ATOM     15  C   UNL     1     104.948 104.296 130.247  0.00  0.00    +0.000 A 
ATOM     16  C   UNL     1     104.325 103.252 128.178  0.00  0.00    +0.000 A 
ENDBRANCH   9  11
BRANCH   8  17
ATOM     17  C   UNL     1     106.347 104.619 125.186  0.00  0.00    +0.000 C 
ATOM     18  C   UNL     1     107.324 105.737 125.600  0.00  0.00    +0.000 C 
ENDBRANCH   8  17
ENDBRANCH   2   9
BRANCH   6  19
ATOM     19  C   UNL     1      98.604 102.725 125.193  0.00  0.00    +0.000 C 
BRANCH  19  20
ATOM     20  C   UNL     1      97.611 103.841 125.506  0.00  0.00    +0.000 C 
BRANCH  20  23
ATOM     21  C   UNL     1      95.262 102.934 125.363  0.00  0.00    +0.000 A 
ATOM     22  C   UNL     1      94.126 102.183 127.319  0.00  0.00    +0.000 A 
ATOM     23  C   UNL     1      96.358 103.245 126.151  0.00  0.00    +0.000 A 
ATOM     24  C   UNL     1      94.139 102.397 125.957  0.00  0.00    +0.000 A 
ATOM     25  C   UNL     1      95.208 102.489 128.106  0.00  0.00    +0.000 A 
ATOM     26  C   UNL     1      96.336 103.028 127.515  0.00  0.00    +0.000 A 
ENDBRANCH  20  23
ENDBRANCH  19  20
ENDBRANCH   6  19
TORSDOF 6
