REMARK minimizedAffinity -7.65017366
REMARK minimizedRMSD -1
REMARK  Name = 04_docking/output/fentanyl.pdb
REMARK  7 active torsions:
REMARK  status: ('A' for Active; 'I' for Inactive)
REMARK    1  A    between atoms: C_2  and  C_16
REMARK    2  A    between atoms: C_2  and  C_17
REMARK    3  A    between atoms: C_5  and  N_23
REMARK    4  A    between atoms: C_9  and  C_10
REMARK    5  A    between atoms: C_10  and  C_11
REMARK    6  A    between atoms: C_12  and  N_23
REMARK    7  A    between atoms: C_16  and  N_24
REMARK                            x       y       z     vdW  Elec       q    Type
REMARK                         _______ _______ _______ _____ _____    ______ ____
ROOT
ATOM      1  C   UNL     1     101.472 103.736 127.043  0.00  0.00    +0.000 C 
ATOM      2  C   UNL     1     103.354 104.254 125.392  0.00  0.00    +0.000 C 
ATOM      3  C   UNL     1     104.324 104.116 126.579  0.00  0.00    +0.000 C 
ATOM      4  C   UNL     1     103.641 104.363 127.926  0.00  0.00    +0.000 C 
ATOM      5  C   UNL     1     102.048 103.488 125.648  0.00  0.00    +0.000 C 
ATOM      6  N   UNL     1     102.480 103.460 128.076  0.00  0.00    +0.000 N 
ATOM      7  H   UNL     1     102.820 102.506 127.956  0.00  0.00    +0.000 HD
ENDROOT
BRANCH   2   9
ATOM      8  C   UNL     1     104.475 104.983 123.266  0.00  0.00    +0.000 C 
ATOM      9  N   UNL     1     103.992 103.914 124.093  0.00  0.00    +0.000 N 
ATOM     10  O   UNL     1     104.974 105.978 123.755  0.00  0.00    +0.000 OA
BRANCH   9  11
ATOM     11  C   UNL     1     104.148 102.492 123.669  0.00  0.00    +0.000 A 
ATOM     12  C   UNL     1     105.210 101.812 124.260  0.00  0.00    +0.000 A 
ATOM     13  C   UNL     1     105.477 100.486 123.963  0.00  0.00    +0.000 A 
ATOM     14  C   UNL     1     103.611 100.476 122.455  0.00  0.00    +0.000 A 
ATOM     15  C   UNL     1     104.672  99.820 123.057  0.00  0.00    +0.000 A 
ATOM     16  C   UNL     1     103.356 101.805 122.764  0.00  0.00    +0.000 A 
ENDBRANCH   9  11
BRANCH   8  17
ATOM     17  C   UNL     1     104.413 104.973 121.727  0.00  0.00    +0.000 C 
ATOM     18  C   UNL     1     105.643 105.690 121.137  0.00  0.00    +0.000 C 
ENDBRANCH   8  17
ENDBRANCH   2   9
BRANCH   6  19
ATOM     19  C   UNL     1     101.885 103.547 129.421  0.00  0.00    +0.000 C 
BRANCH  19  20
ATOM     20  C   UNL     1     101.076 104.825 129.621  0.00  0.00    +0.000 C 
BRANCH  20  23
ATOM     21  C   UNL     1     100.645 104.207 132.029  0.00  0.00    +0.000 A 
ATOM     22  C   UNL     1     100.943 105.808 133.768  0.00  0.00    +0.000 A 
ATOM     23  C   UNL     1     101.027 105.172 131.111  0.00  0.00    +0.000 A 
ATOM     24  C   UNL     1     100.606 104.533 133.368  0.00  0.00    +0.000 A 
ATOM     25  C   UNL     1     101.322 106.770 132.864  0.00  0.00    +0.000 A 
ATOM     26  C   UNL     1     101.362 106.448 131.521  0.00  0.00    +0.000 A 
ENDBRANCH  20  23
ENDBRANCH  19  20
ENDBRANCH   6  19
TORSDOF 6
