REMARK minimizedAffinity -6.85169458
REMARK minimizedRMSD -1
REMARK  Name = 04_docking/output/fentanyl.pdb
REMARK  7 active torsions:
REMARK  status: ('A' for Active; 'I' for Inactive)
REMARK    1  A    between atoms: C_2  and  C_16
REMARK    2  A    between atoms: C_2  and  C_17
REMARK    3  A    between atoms: C_5  and  N_23
REMARK    4  A    between atoms: C_9  and  C_10
REMARK    5  A    between atoms: C_10  and  C_11
REMARK    6  A    between atoms: C_12  and  N_23
REMARK    7  A    between atoms: C_16  and  N_24
REMARK                            x       y       z     vdW  Elec       q    Type
REMARK                         _______ _______ _______ _____ _____    ______ ____
ROOT
ATOM      1  C   UNL     1     102.074 106.444 126.328  0.00  0.00    +0.000 C 
ATOM      2  C   UNL     1     103.538 105.044 124.767  0.00  0.00    +0.000 C 
ATOM      3  C   UNL     1     103.427 103.916 125.809  0.00  0.00    +0.000 C 
ATOM      4  C   UNL     1     103.114 104.441 127.211  0.00  0.00    +0.000 C 
ATOM      5  C   UNL     1     102.363 106.027 124.885  0.00  0.00    +0.000 C 
ATOM      6  N   UNL     1     101.885 105.262 127.181  0.00  0.00    +0.000 N 
ATOM      7  H   UNL     1     101.144 104.685 126.782  0.00  0.00    +0.000 HD
ENDROOT
BRANCH   2   9
ATOM      8  C   UNL     1     102.930 103.431 122.941  0.00  0.00    +0.000 C 
ATOM      9  N   UNL     1     103.740 104.528 123.389  0.00  0.00    +0.000 N 
ATOM     10  O   UNL     1     101.768 103.328 123.284  0.00  0.00    +0.000 OA
BRANCH   9  11
ATOM     11  C   UNL     1     104.746 105.153 122.481  0.00  0.00    +0.000 A 
ATOM     12  C   UNL     1     105.798 105.802 123.122  0.00  0.00    +0.000 A 
ATOM     13  C   UNL     1     106.807 106.428 122.408  0.00  0.00    +0.000 A 
ATOM     14  C   UNL     1     105.733 105.770 120.365  0.00  0.00    +0.000 A 
ATOM     15  C   UNL     1     106.770 106.409 121.026  0.00  0.00    +0.000 A 
ATOM     16  C   UNL     1     104.730 105.148 121.095  0.00  0.00    +0.000 A 
ENDBRANCH   9  11
BRANCH   8  17
ATOM     17  C   UNL     1     103.437 102.314 122.010  0.00  0.00    +0.000 C 
ATOM     18  C   UNL     1     104.006 101.145 122.839  0.00  0.00    +0.000 C 
ENDBRANCH   8  17
ENDBRANCH   2   9
BRANCH   6  19
ATOM     19  C   UNL     1     101.453 105.658 128.532  0.00  0.00    +0.000 C 
BRANCH  19  20
ATOM     20  C   UNL     1     100.493 104.650 129.158  0.00  0.00    +0.000 C 
BRANCH  20  23
ATOM     21  C   UNL     1     101.941 103.480 130.859  0.00  0.00    +0.000 A 
ATOM     22  C   UNL     1     101.650 103.883 133.189  0.00  0.00    +0.000 A 
ATOM     23  C   UNL     1     100.913 104.372 130.603  0.00  0.00    +0.000 A 
ATOM     24  C   UNL     1     102.311 103.238 132.165  0.00  0.00    +0.000 A 
ATOM     25  C   UNL     1     100.629 104.766 132.943  0.00  0.00    +0.000 A 
ATOM     26  C   UNL     1     100.255 105.012 131.635  0.00  0.00    +0.000 A 
ENDBRANCH  20  23
ENDBRANCH  19  20
ENDBRANCH   6  19
TORSDOF 6
