REMARK minimizedAffinity -7.51161814
REMARK minimizedRMSD -1
REMARK  Name = 04_docking/output/fentanyl.pdb
REMARK  7 active torsions:
REMARK  status: ('A' for Active; 'I' for Inactive)
REMARK    1  A    between atoms: C_2  and  C_16
REMARK    2  A    between atoms: C_2  and  C_17
REMARK    3  A    between atoms: C_5  and  N_23
REMARK    4  A    between atoms: C_9  and  C_10
REMARK    5  A    between atoms: C_10  and  C_11
REMARK    6  A    between atoms: C_12  and  N_23
REMARK    7  A    between atoms: C_16  and  N_24
REMARK                            x       y       z     vdW  Elec       q    Type
REMARK                         _______ _______ _______ _____ _____    ______ ____
ROOT
ATOM      1  C   UNL     1     101.163 103.331 126.156  0.00  0.00    +0.000 C 
ATOM      2  C   UNL     1     101.900 104.970 127.975  0.00  0.00    +0.000 C 
ATOM      3  C   UNL     1     100.415 105.346 128.125  0.00  0.00    +0.000 C 
ATOM      4  C   UNL     1      99.605 105.050 126.861  0.00  0.00    +0.000 C 
ATOM      5  C   UNL     1     102.061 103.567 127.372  0.00  0.00    +0.000 C 
ATOM      6  N   UNL     1      99.761 103.629 126.484  0.00  0.00    +0.000 N 
ATOM      7  H   UNL     1      99.486 103.068 127.290  0.00  0.00    +0.000 HD
ENDROOT
BRANCH   2   9
ATOM      8  C   UNL     1     104.048 105.540 129.145  0.00  0.00    +0.000 C 
ATOM      9  N   UNL     1     102.666 105.162 129.234  0.00  0.00    +0.000 N 
ATOM     10  O   UNL     1     104.438 106.293 128.273  0.00  0.00    +0.000 OA
BRANCH   9  11
ATOM     11  C   UNL     1     102.007 104.989 130.561  0.00  0.00    +0.000 A 
ATOM     12  C   UNL     1     101.693 106.173 131.225  0.00  0.00    +0.000 A 
ATOM     13  C   UNL     1     101.079 106.168 132.466  0.00  0.00    +0.000 A 
ATOM     14  C   UNL     1     101.073 103.768 132.424  0.00  0.00    +0.000 A 
ATOM     15  C   UNL     1     100.770 104.959 133.063  0.00  0.00    +0.000 A 
ATOM     16  C   UNL     1     101.689 103.791 131.180  0.00  0.00    +0.000 A 
ENDBRANCH   9  11
BRANCH   8  17
ATOM     17  C   UNL     1     105.136 105.047 130.117  0.00  0.00    +0.000 C 
ATOM     18  C   UNL     1     105.441 103.556 129.866  0.00  0.00    +0.000 C 
ENDBRANCH   8  17
ENDBRANCH   2   9
BRANCH   6  19
ATOM     19  C   UNL     1      98.875 103.255 125.368  0.00  0.00    +0.000 C 
BRANCH  19  20
ATOM     20  C   UNL     1      97.709 104.224 125.196  0.00  0.00    +0.000 C 
BRANCH  20  23
ATOM     21  C   UNL     1      95.307 103.547 124.834  0.00  0.00    +0.000 A 
ATOM     22  C   UNL     1      94.108 102.365 126.520  0.00  0.00    +0.000 A 
ATOM     23  C   UNL     1      96.415 103.558 125.666  0.00  0.00    +0.000 A 
ATOM     24  C   UNL     1      94.146 102.942 125.268  0.00  0.00    +0.000 A 
ATOM     25  C   UNL     1      95.201 102.373 127.350  0.00  0.00    +0.000 A 
ATOM     26  C   UNL     1      96.367 102.978 126.918  0.00  0.00    +0.000 A 
ENDBRANCH  20  23
ENDBRANCH  19  20
ENDBRANCH   6  19
TORSDOF 6
