REMARK minimizedAffinity -7.14687109
REMARK minimizedRMSD -1
REMARK  Name = 04_docking/output/fentanyl.pdb
REMARK  7 active torsions:
REMARK  status: ('A' for Active; 'I' for Inactive)
REMARK    1  A    between atoms: C_2  and  C_16
REMARK    2  A    between atoms: C_2  and  C_17
REMARK    3  A    between atoms: C_5  and  N_23
REMARK    4  A    between atoms: C_9  and  C_10
REMARK    5  A    between atoms: C_10  and  C_11
REMARK    6  A    between atoms: C_12  and  N_23
REMARK    7  A    between atoms: C_16  and  N_24
REMARK                            x       y       z     vdW  Elec       q    Type
REMARK                         _______ _______ _______ _____ _____    ______ ____
ROOT
ATOM      1  C   UNL     1      99.614 104.511 127.862  0.00  0.00    +0.000 C 
ATOM      2  C   UNL     1     101.620 103.848 129.303  0.00  0.00    +0.000 C 
ATOM      3  C   UNL     1     102.375 103.584 127.988  0.00  0.00    +0.000 C 
ATOM      4  C   UNL     1     101.432 103.291 126.819  0.00  0.00    +0.000 C 
ATOM      5  C   UNL     1     100.464 104.836 129.093  0.00  0.00    +0.000 C 
ATOM      6  N   UNL     1     100.461 104.395 126.666  0.00  0.00    +0.000 N 
ATOM      7  H   UNL     1     100.995 105.258 126.558  0.00  0.00    +0.000 HD
ENDROOT
BRANCH   2   9
ATOM      8  C   UNL     1     102.178 103.848 131.752  0.00  0.00    +0.000 C 
ATOM      9  N   UNL     1     102.529 104.232 130.414  0.00  0.00    +0.000 N 
ATOM     10  O   UNL     1     101.633 102.785 131.976  0.00  0.00    +0.000 OA
BRANCH   9  11
ATOM     11  C   UNL     1     103.791 104.981 130.143  0.00  0.00    +0.000 A 
ATOM     12  C   UNL     1     103.626 106.332 129.847  0.00  0.00    +0.000 A 
ATOM     13  C   UNL     1     104.707 107.152 129.574  0.00  0.00    +0.000 A 
ATOM     14  C   UNL     1     106.173 105.278 129.885  0.00  0.00    +0.000 A 
ATOM     15  C   UNL     1     105.983 106.619 129.594  0.00  0.00    +0.000 A 
ATOM     16  C   UNL     1     105.079 104.469 130.156  0.00  0.00    +0.000 A 
ENDBRANCH   9  11
BRANCH   8  17
ATOM     17  C   UNL     1     102.450 104.717 132.994  0.00  0.00    +0.000 C 
ATOM     18  C   UNL     1     101.202 105.549 133.349  0.00  0.00    +0.000 C 
ENDBRANCH   8  17
ENDBRANCH   2   9
BRANCH   6  19
ATOM     19  C   UNL     1      99.634 104.238 125.456  0.00  0.00    +0.000 C 
BRANCH  19  20
ATOM     20  C   UNL     1     100.072 105.163 124.324  0.00  0.00    +0.000 C 
BRANCH  20  23
ATOM     21  C   UNL     1     101.787 106.920 124.905  0.00  0.00    +0.000 A 
ATOM     22  C   UNL     1     101.131 108.969 125.928  0.00  0.00    +0.000 A 
ATOM     23  C   UNL     1     100.457 106.528 124.898  0.00  0.00    +0.000 A 
ATOM     24  C   UNL     1     102.120 108.153 125.424  0.00  0.00    +0.000 A 
ATOM     25  C   UNL     1      99.812 108.587 125.925  0.00  0.00    +0.000 A 
ATOM     26  C   UNL     1      99.472 107.352 125.406  0.00  0.00    +0.000 A 
ENDBRANCH  20  23
ENDBRANCH  19  20
ENDBRANCH   6  19
TORSDOF 6
