REMARK minimizedAffinity -6.5666151
REMARK minimizedRMSD -1
REMARK  Name = 04_docking/output/fentanyl.pdb
REMARK  7 active torsions:
REMARK  status: ('A' for Active; 'I' for Inactive)
REMARK    1  A    between atoms: C_2  and  C_16
REMARK    2  A    between atoms: C_2  and  C_17
REMARK    3  A    between atoms: C_5  and  N_23
REMARK    4  A    between atoms: C_9  and  C_10
REMARK    5  A    between atoms: C_10  and  C_11
REMARK    6  A    between atoms: C_12  and  N_23
REMARK    7  A    between atoms: C_16  and  N_24
REMARK                            x       y       z     vdW  Elec       q    Type
REMARK                         _______ _______ _______ _____ _____    ______ ____
ROOT
ATOM      1  C   UNL     1     102.126 103.767 126.787  0.00  0.00    +0.000 C 
ATOM      2  C   UNL     1     100.541 103.112 124.889  0.00  0.00    +0.000 C 
ATOM      3  C   UNL     1      99.579 104.183 125.433  0.00  0.00    +0.000 C 
ATOM      4  C   UNL     1      99.814 104.486 126.914  0.00  0.00    +0.000 C 
ATOM      5  C   UNL     1     101.990 103.403 125.307  0.00  0.00    +0.000 C 
ATOM      6  N   UNL     1     101.224 104.875 127.132  0.00  0.00    +0.000 N 
ATOM      7  H   UNL     1     101.420 105.663 126.513  0.00  0.00    +0.000 HD
ENDROOT
BRANCH   2   9
ATOM      8  C   UNL     1      99.946 101.601 122.974  0.00  0.00    +0.000 C 
ATOM      9  N   UNL     1     100.382 102.891 123.429  0.00  0.00    +0.000 N 
ATOM     10  O   UNL     1      99.137 100.952 123.609  0.00  0.00    +0.000 OA
BRANCH   9  11
ATOM     11  C   UNL     1     100.646 103.992 122.457  0.00  0.00    +0.000 A 
ATOM     12  C   UNL     1      99.512 104.647 121.983  0.00  0.00    +0.000 A 
ATOM     13  C   UNL     1      99.602 105.690 121.077  0.00  0.00    +0.000 A 
ATOM     14  C   UNL     1     101.990 105.455 121.086  0.00  0.00    +0.000 A 
ATOM     15  C   UNL     1     100.847 106.092 120.629  0.00  0.00    +0.000 A 
ATOM     16  C   UNL     1     101.883 104.412 121.994  0.00  0.00    +0.000 A 
ENDBRANCH   9  11
BRANCH   8  17
ATOM     17  C   UNL     1     100.444 100.935 121.677  0.00  0.00    +0.000 C 
ATOM     18  C   UNL     1     101.852 100.344 121.886  0.00  0.00    +0.000 C 
ENDBRANCH   8  17
ENDBRANCH   2   9
BRANCH   6  19
ATOM     19  C   UNL     1     101.463 105.331 128.512  0.00  0.00    +0.000 C 
BRANCH  19  20
ATOM     20  C   UNL     1     100.302 105.003 129.445  0.00  0.00    +0.000 C 
BRANCH  20  23
ATOM     21  C   UNL     1     101.493 103.710 131.254  0.00  0.00    +0.000 A 
ATOM     22  C   UNL     1     101.740 104.621 133.441  0.00  0.00    +0.000 A 
ATOM     23  C   UNL     1     100.821 104.861 130.878  0.00  0.00    +0.000 A 
ATOM     24  C   UNL     1     101.956 103.594 132.547  0.00  0.00    +0.000 A 
ATOM     25  C   UNL     1     101.073 105.764 133.076  0.00  0.00    +0.000 A 
ATOM     26  C   UNL     1     100.607 105.884 131.781  0.00  0.00    +0.000 A 
ENDBRANCH  20  23
ENDBRANCH  19  20
ENDBRANCH   6  19
TORSDOF 6
