REMARK minimizedAffinity -6.45706797
REMARK minimizedRMSD -1
REMARK  Name = 04_docking/output/fentanyl.pdb
REMARK  7 active torsions:
REMARK  status: ('A' for Active; 'I' for Inactive)
REMARK    1  A    between atoms: C_2  and  C_16
REMARK    2  A    between atoms: C_2  and  C_17
REMARK    3  A    between atoms: C_5  and  N_23
REMARK    4  A    between atoms: C_9  and  C_10
REMARK    5  A    between atoms: C_10  and  C_11
REMARK    6  A    between atoms: C_12  and  N_23
REMARK    7  A    between atoms: C_16  and  N_24
REMARK                            x       y       z     vdW  Elec       q    Type
REMARK                         _______ _______ _______ _____ _____    ______ ____
ROOT
ATOM      1  C   UNL     1     100.742 105.938 126.233  0.00  0.00    +0.000 C 
ATOM      2  C   UNL     1      99.182 104.835 124.532  0.00  0.00    +0.000 C 
ATOM      3  C   UNL     1      99.497 103.500 125.231  0.00  0.00    +0.000 C 
ATOM      4  C   UNL     1     100.834 103.529 125.976  0.00  0.00    +0.000 C 
ATOM      5  C   UNL     1      99.416 106.025 125.475  0.00  0.00    +0.000 C 
ATOM      6  N   UNL     1     100.852 104.652 126.937  0.00  0.00    +0.000 N 
ATOM      7  H   UNL     1     100.042 104.542 127.548  0.00  0.00    +0.000 HD
ENDROOT
BRANCH   2   9
ATOM      8  C   UNL     1      97.542 105.865 122.934  0.00  0.00    +0.000 C 
ATOM      9  N   UNL     1      97.840 104.842 123.895  0.00  0.00    +0.000 N 
ATOM     10  O   UNL     1      98.394 106.275 122.170  0.00  0.00    +0.000 OA
BRANCH   9  11
ATOM     11  C   UNL     1      96.832 103.794 124.230  0.00  0.00    +0.000 A 
ATOM     12  C   UNL     1      96.251 103.913 125.491  0.00  0.00    +0.000 A 
ATOM     13  C   UNL     1      95.299 103.013 125.939  0.00  0.00    +0.000 A 
ATOM     14  C   UNL     1      95.478 101.829 123.859  0.00  0.00    +0.000 A 
ATOM     15  C   UNL     1      94.914 101.970 125.117  0.00  0.00    +0.000 A 
ATOM     16  C   UNL     1      96.431 102.740 123.425  0.00  0.00    +0.000 A 
ENDBRANCH   9  11
BRANCH   8  17
ATOM     17  C   UNL     1      96.157 106.521 122.780  0.00  0.00    +0.000 C 
ATOM     18  C   UNL     1      96.066 107.788 123.654  0.00  0.00    +0.000 C 
ENDBRANCH   8  17
ENDBRANCH   2   9
BRANCH   6  19
ATOM     19  C   UNL     1     102.051 104.627 127.791  0.00  0.00    +0.000 C 
BRANCH  19  20
ATOM     20  C   UNL     1     102.079 103.421 128.725  0.00  0.00    +0.000 C 
BRANCH  20  23
ATOM     21  C   UNL     1     102.184 103.256 131.240  0.00  0.00    +0.000 A 
ATOM     22  C   UNL     1     100.774 104.605 132.608  0.00  0.00    +0.000 A 
ATOM     23  C   UNL     1     101.615 103.843 130.121  0.00  0.00    +0.000 A 
ATOM     24  C   UNL     1     101.757 103.646 132.492  0.00  0.00    +0.000 A 
ATOM     25  C   UNL     1     100.205 105.190 131.504  0.00  0.00    +0.000 A 
ATOM     26  C   UNL     1     100.630 104.803 130.246  0.00  0.00    +0.000 A 
ENDBRANCH  20  23
ENDBRANCH  19  20
ENDBRANCH   6  19
TORSDOF 6
