REMARK minimizedAffinity -6.83138561
REMARK minimizedRMSD -1
REMARK  Name = 04_docking/output/fentanyl.pdb
REMARK  7 active torsions:
REMARK  status: ('A' for Active; 'I' for Inactive)
REMARK    1  A    between atoms: C_2  and  C_16
REMARK    2  A    between atoms: C_2  and  C_17
REMARK    3  A    between atoms: C_5  and  N_23
REMARK    4  A    between atoms: C_9  and  C_10
REMARK    5  A    between atoms: C_10  and  C_11
REMARK    6  A    between atoms: C_12  and  N_23
REMARK    7  A    between atoms: C_16  and  N_24
REMARK                            x       y       z     vdW  Elec       q    Type
REMARK                         _______ _______ _______ _____ _____    ______ ____
ROOT
ATOM      1  C   UNL     1      99.080 101.929 122.794  0.00  0.00    +0.000 C 
ATOM      2  C   UNL     1     101.361 103.084 122.840  0.00  0.00    +0.000 C 
ATOM      3  C   UNL     1     101.241 103.080 124.374  0.00  0.00    +0.000 C 
ATOM      4  C   UNL     1      99.789 103.003 124.849  0.00  0.00    +0.000 C 
ATOM      5  C   UNL     1     100.494 101.983 122.211  0.00  0.00    +0.000 C 
ATOM      6  N   UNL     1      99.128 101.819 124.259  0.00  0.00    +0.000 N 
ATOM      7  H   UNL     1      99.687 101.003 124.508  0.00  0.00    +0.000 HD
ENDROOT
BRANCH   2   9
ATOM      8  C   UNL     1     103.236 104.110 121.521  0.00  0.00    +0.000 C 
ATOM      9  N   UNL     1     102.774 103.056 122.378  0.00  0.00    +0.000 N 
ATOM     10  O   UNL     1     102.840 105.251 121.660  0.00  0.00    +0.000 OA
BRANCH   9  11
ATOM     11  C   UNL     1     103.698 101.970 122.816  0.00  0.00    +0.000 A 
ATOM     12  C   UNL     1     103.602 100.784 122.092  0.00  0.00    +0.000 A 
ATOM     13  C   UNL     1     104.397  99.689 122.385  0.00  0.00    +0.000 A 
ATOM     14  C   UNL     1     105.422 100.941 124.158  0.00  0.00    +0.000 A 
ATOM     15  C   UNL     1     105.309  99.772 123.422  0.00  0.00    +0.000 A 
ATOM     16  C   UNL     1     104.617 102.029 123.851  0.00  0.00    +0.000 A 
ENDBRANCH   9  11
BRANCH   8  17
ATOM     17  C   UNL     1     104.248 103.905 120.378  0.00  0.00    +0.000 C 
ATOM     18  C   UNL     1     105.043 105.202 120.129  0.00  0.00    +0.000 C 
ENDBRANCH   8  17
ENDBRANCH   2   9
BRANCH   6  19
ATOM     19  C   UNL     1      97.778 101.610 124.810  0.00  0.00    +0.000 C 
BRANCH  19  20
ATOM     20  C   UNL     1      97.118 102.913 125.250  0.00  0.00    +0.000 C 
BRANCH  20  23
ATOM     21  C   UNL     1      94.678 102.279 125.327  0.00  0.00    +0.000 A 
ATOM     22  C   UNL     1      93.545 102.049 127.411  0.00  0.00    +0.000 A 
ATOM     23  C   UNL     1      95.833 102.601 126.021  0.00  0.00    +0.000 A 
ATOM     24  C   UNL     1      93.527 101.999 126.033  0.00  0.00    +0.000 A 
ATOM     25  C   UNL     1      94.685 102.370 128.105  0.00  0.00    +0.000 A 
ATOM     26  C   UNL     1      95.841 102.650 127.401  0.00  0.00    +0.000 A 
ENDBRANCH  20  23
ENDBRANCH  19  20
ENDBRANCH   6  19
TORSDOF 6
