REMARK minimizedAffinity -6.80402136
REMARK minimizedRMSD -1
REMARK  Name = 04_docking/output/fentanyl.pdb
REMARK  7 active torsions:
REMARK  status: ('A' for Active; 'I' for Inactive)
REMARK    1  A    between atoms: C_2  and  C_16
REMARK    2  A    between atoms: C_2  and  C_17
REMARK    3  A    between atoms: C_5  and  N_23
REMARK    4  A    between atoms: C_9  and  C_10
REMARK    5  A    between atoms: C_10  and  C_11
REMARK    6  A    between atoms: C_12  and  N_23
REMARK    7  A    between atoms: C_16  and  N_24
REMARK                            x       y       z     vdW  Elec       q    Type
REMARK                         _______ _______ _______ _____ _____    ______ ____
ROOT
ATOM      1  C   UNL     1     101.972 106.431 125.229  0.00  0.00    +0.000 C 
ATOM      2  C   UNL     1     101.258 105.314 127.416  0.00  0.00    +0.000 C 
ATOM      3  C   UNL     1     101.175 103.998 126.621  0.00  0.00    +0.000 C 
ATOM      4  C   UNL     1     100.963 104.229 125.124  0.00  0.00    +0.000 C 
ATOM      5  C   UNL     1     102.205 106.314 126.736  0.00  0.00    +0.000 C 
ATOM      6  N   UNL     1     102.027 105.107 124.593  0.00  0.00    +0.000 N 
ATOM      7  H   UNL     1     102.922 104.671 124.820  0.00  0.00    +0.000 HD
ENDROOT
BRANCH   2   9
ATOM      8  C   UNL     1     100.485 105.113 129.796  0.00  0.00    +0.000 C 
ATOM      9  N   UNL     1     101.566 105.093 128.852  0.00  0.00    +0.000 N 
ATOM     10  O   UNL     1      99.391 104.668 129.507  0.00  0.00    +0.000 OA
BRANCH   9  11
ATOM     11  C   UNL     1     102.965 104.833 129.302  0.00  0.00    +0.000 A 
ATOM     12  C   UNL     1     103.424 103.536 129.085  0.00  0.00    +0.000 A 
ATOM     13  C   UNL     1     104.702 103.149 129.451  0.00  0.00    +0.000 A 
ATOM     14  C   UNL     1     105.110 105.367 130.272  0.00  0.00    +0.000 A 
ATOM     15  C   UNL     1     105.545 104.071 130.046  0.00  0.00    +0.000 A 
ATOM     16  C   UNL     1     103.826 105.739 129.900  0.00  0.00    +0.000 A 
ENDBRANCH   9  11
BRANCH   8  17
ATOM     17  C   UNL     1     100.602 105.680 131.223  0.00  0.00    +0.000 C 
ATOM     18  C   UNL     1     100.677 104.532 132.250  0.00  0.00    +0.000 C 
ENDBRANCH   8  17
ENDBRANCH   2   9
BRANCH   6  19
ATOM     19  C   UNL     1     101.960 105.230 123.126  0.00  0.00    +0.000 C 
BRANCH  19  20
ATOM     20  C   UNL     1     103.227 104.729 122.439  0.00  0.00    +0.000 C 
BRANCH  20  23
ATOM     21  C   UNL     1     104.338 103.266 124.167  0.00  0.00    +0.000 A 
ATOM     22  C   UNL     1     106.254 104.030 125.359  0.00  0.00    +0.000 A 
ATOM     23  C   UNL     1     104.312 104.473 123.487  0.00  0.00    +0.000 A 
ATOM     24  C   UNL     1     105.321 103.047 125.108  0.00  0.00    +0.000 A 
ATOM     25  C   UNL     1     106.233 105.229 124.690  0.00  0.00    +0.000 A 
ATOM     26  C   UNL     1     105.250 105.453 123.745  0.00  0.00    +0.000 A 
ENDBRANCH  20  23
ENDBRANCH  19  20
ENDBRANCH   6  19
TORSDOF 6
