REMARK minimizedAffinity -6.64365911
REMARK minimizedRMSD -1
REMARK  Name = 04_docking/output/fentanyl.pdb
REMARK  7 active torsions:
REMARK  status: ('A' for Active; 'I' for Inactive)
REMARK    1  A    between atoms: C_2  and  C_16
REMARK    2  A    between atoms: C_2  and  C_17
REMARK    3  A    between atoms: C_5  and  N_23
REMARK    4  A    between atoms: C_9  and  C_10
REMARK    5  A    between atoms: C_10  and  C_11
REMARK    6  A    between atoms: C_12  and  N_23
REMARK    7  A    between atoms: C_16  and  N_24
REMARK                            x       y       z     vdW  Elec       q    Type
REMARK                         _______ _______ _______ _____ _____    ______ ____
ROOT
ATOM      1  C   UNL     1     101.704 103.548 125.772  0.00  0.00    +0.000 C 
ATOM      2  C   UNL     1     101.834 105.140 127.769  0.00  0.00    +0.000 C 
ATOM      3  C   UNL     1     100.326 104.899 127.956  0.00  0.00    +0.000 C 
ATOM      4  C   UNL     1      99.639 104.451 126.665  0.00  0.00    +0.000 C 
ATOM      5  C   UNL     1     102.494 103.979 127.009  0.00  0.00    +0.000 C 
ATOM      6  N   UNL     1     100.309 103.248 126.127  0.00  0.00    +0.000 N 
ATOM      7  H   UNL     1     100.303 102.542 126.863  0.00  0.00    +0.000 HD
ENDROOT
BRANCH   2   9
ATOM      8  C   UNL     1     103.647 106.364 129.003  0.00  0.00    +0.000 C 
ATOM      9  N   UNL     1     102.520 105.475 129.043  0.00  0.00    +0.000 N 
ATOM     10  O   UNL     1     103.681 107.298 128.225  0.00  0.00    +0.000 OA
BRANCH   9  11
ATOM     11  C   UNL     1     102.035 104.919 130.340  0.00  0.00    +0.000 A 
ATOM     12  C   UNL     1     101.296 105.803 131.123  0.00  0.00    +0.000 A 
ATOM     13  C   UNL     1     100.781 105.427 132.352  0.00  0.00    +0.000 A 
ATOM     14  C   UNL     1     101.736 103.246 132.055  0.00  0.00    +0.000 A 
ATOM     15  C   UNL     1     101.004 104.143 132.815  0.00  0.00    +0.000 A 
ATOM     16  C   UNL     1     102.246 103.639 130.825  0.00  0.00    +0.000 A 
ENDBRANCH   9  11
BRANCH   8  17
ATOM     17  C   UNL     1     104.881 106.227 129.914  0.00  0.00    +0.000 C 
ATOM     18  C   UNL     1     105.767 105.057 129.441  0.00  0.00    +0.000 C 
ENDBRANCH   8  17
ENDBRANCH   2   9
BRANCH   6  19
ATOM     19  C   UNL     1      99.588 102.684 124.973  0.00  0.00    +0.000 C 
BRANCH  19  20
ATOM     20  C   UNL     1     100.339 102.884 123.660  0.00  0.00    +0.000 C 
BRANCH  20  23
ATOM     21  C   UNL     1      99.245 100.833 122.680  0.00  0.00    +0.000 A 
ATOM     22  C   UNL     1     100.541  99.187 121.545  0.00  0.00    +0.000 A 
ATOM     23  C   UNL     1     100.406 101.557 122.900  0.00  0.00    +0.000 A 
ATOM     24  C   UNL     1      99.319  99.639 121.994  0.00  0.00    +0.000 A 
ATOM     25  C   UNL     1     101.695  99.899 121.760  0.00  0.00    +0.000 A 
ATOM     26  C   UNL     1     101.626 101.096 122.447  0.00  0.00    +0.000 A 
ENDBRANCH  20  23
ENDBRANCH  19  20
ENDBRANCH   6  19
TORSDOF 6
