REMARK minimizedAffinity -6.73251104
REMARK minimizedRMSD -1
REMARK  Name = 04_docking/output/fentanyl.pdb
REMARK  7 active torsions:
REMARK  status: ('A' for Active; 'I' for Inactive)
REMARK    1  A    between atoms: C_2  and  C_16
REMARK    2  A    between atoms: C_2  and  C_17
REMARK    3  A    between atoms: C_5  and  N_23
REMARK    4  A    between atoms: C_9  and  C_10
REMARK    5  A    between atoms: C_10  and  C_11
REMARK    6  A    between atoms: C_12  and  N_23
REMARK    7  A    between atoms: C_16  and  N_24
REMARK                            x       y       z     vdW  Elec       q    Type
REMARK                         _______ _______ _______ _____ _____    ______ ____
ROOT
ATOM      1  C   UNL     1     100.233 103.427 125.345  0.00  0.00    +0.000 C 
ATOM      2  C   UNL     1     102.302 103.940 123.932  0.00  0.00    +0.000 C 
ATOM      3  C   UNL     1     102.964 104.437 125.230  0.00  0.00    +0.000 C 
ATOM      4  C   UNL     1     101.942 104.869 126.282  0.00  0.00    +0.000 C 
ATOM      5  C   UNL     1     101.167 102.949 124.232  0.00  0.00    +0.000 C 
ATOM      6  N   UNL     1     100.999 103.763 126.554  0.00  0.00    +0.000 N 
ATOM      7  H   UNL     1     101.554 102.952 126.827  0.00  0.00    +0.000 HD
ENDROOT
BRANCH   2   9
ATOM      8  C   UNL     1     103.625 104.245 121.820  0.00  0.00    +0.000 C 
ATOM      9  N   UNL     1     103.290 103.425 122.949  0.00  0.00    +0.000 N 
ATOM     10  O   UNL     1     103.694 105.454 121.921  0.00  0.00    +0.000 OA
BRANCH   9  11
ATOM     11  C   UNL     1     103.938 102.095 123.144  0.00  0.00    +0.000 A 
ATOM     12  C   UNL     1     103.423 101.066 122.359  0.00  0.00    +0.000 A 
ATOM     13  C   UNL     1     103.925  99.777 122.433  0.00  0.00    +0.000 A 
ATOM     14  C   UNL     1     105.490 100.510 124.098  0.00  0.00    +0.000 A 
ATOM     15  C   UNL     1     104.962  99.503 123.306  0.00  0.00    +0.000 A 
ATOM     16  C   UNL     1     104.976 101.796 124.012  0.00  0.00    +0.000 A 
ENDBRANCH   9  11
BRANCH   8  17
ATOM     17  C   UNL     1     103.923 103.689 120.415  0.00  0.00    +0.000 C 
ATOM     18  C   UNL     1     104.961 104.576 119.698  0.00  0.00    +0.000 C 
ENDBRANCH   8  17
ENDBRANCH   2   9
BRANCH   6  19
ATOM     19  C   UNL     1     100.094 104.073 127.674  0.00  0.00    +0.000 C 
BRANCH  19  20
ATOM     20  C   UNL     1     100.613 105.211 128.548  0.00  0.00    +0.000 C 
BRANCH  20  23
ATOM     21  C   UNL     1     100.200 105.155 131.035  0.00  0.00    +0.000 A 
ATOM     22  C   UNL     1     101.482 103.729 132.450  0.00  0.00    +0.000 A 
ATOM     23  C   UNL     1     100.920 104.682 129.950  0.00  0.00    +0.000 A 
ATOM     24  C   UNL     1     100.486 104.670 132.294  0.00  0.00    +0.000 A 
ATOM     25  C   UNL     1     102.200 103.257 131.380  0.00  0.00    +0.000 A 
ATOM     26  C   UNL     1     101.917 103.740 130.116  0.00  0.00    +0.000 A 
ENDBRANCH  20  23
ENDBRANCH  19  20
ENDBRANCH   6  19
TORSDOF 6
