REMARK minimizedAffinity -7.13769722
REMARK minimizedRMSD -1
REMARK  Name = 04_docking/output/fentanyl.pdb
REMARK  7 active torsions:
REMARK  status: ('A' for Active; 'I' for Inactive)
REMARK    1  A    between atoms: C_2  and  C_16
REMARK    2  A    between atoms: C_2  and  C_17
REMARK    3  A    between atoms: C_5  and  N_23
REMARK    4  A    between atoms: C_9  and  C_10
REMARK    5  A    between atoms: C_10  and  C_11
REMARK    6  A    between atoms: C_12  and  N_23
REMARK    7  A    between atoms: C_16  and  N_24
REMARK                            x       y       z     vdW  Elec       q    Type
REMARK                         _______ _______ _______ _____ _____    ______ ____
ROOT
ATOM      1  C   UNL     1     101.497 103.683 126.917  0.00  0.00    +0.000 C 
ATOM      2  C   UNL     1     103.406 104.033 125.252  0.00  0.00    +0.000 C 
ATOM      3  C   UNL     1     104.367 103.726 126.414  0.00  0.00    +0.000 C 
ATOM      4  C   UNL     1     103.739 103.999 127.782  0.00  0.00    +0.000 C 
ATOM      5  C   UNL     1     102.019 103.424 125.502  0.00  0.00    +0.000 C 
ATOM      6  N   UNL     1     102.478 103.240 127.918  0.00  0.00    +0.000 N 
ATOM      7  H   UNL     1     102.695 102.257 127.753  0.00  0.00    +0.000 HD
ENDROOT
BRANCH   2   9
ATOM      8  C   UNL     1     104.381 104.729 123.045  0.00  0.00    +0.000 C 
ATOM      9  N   UNL     1     103.979 103.672 123.929  0.00  0.00    +0.000 N 
ATOM     10  O   UNL     1     104.877 105.752 123.475  0.00  0.00    +0.000 OA
BRANCH   9  11
ATOM     11  C   UNL     1     104.154 102.243 123.538  0.00  0.00    +0.000 A 
ATOM     12  C   UNL     1     105.225 101.591 124.143  0.00  0.00    +0.000 A 
ATOM     13  C   UNL     1     105.510 100.262 123.876  0.00  0.00    +0.000 A 
ATOM     14  C   UNL     1     103.642 100.192 122.371  0.00  0.00    +0.000 A 
ATOM     15  C   UNL     1     104.713  99.564 122.987  0.00  0.00    +0.000 A 
ATOM     16  C   UNL     1     103.370 101.524 122.650  0.00  0.00    +0.000 A 
ENDBRANCH   9  11
BRANCH   8  17
ATOM     17  C   UNL     1     104.231 104.670 121.513  0.00  0.00    +0.000 C 
ATOM     18  C   UNL     1     102.805 105.083 121.099  0.00  0.00    +0.000 C 
ENDBRANCH   8  17
ENDBRANCH   2   9
BRANCH   6  19
ATOM     19  C   UNL     1     101.916 103.343 129.277  0.00  0.00    +0.000 C 
BRANCH  19  20
ATOM     20  C   UNL     1     102.920 103.896 130.284  0.00  0.00    +0.000 C 
BRANCH  20  23
ATOM     21  C   UNL     1     102.299 106.014 131.504  0.00  0.00    +0.000 A 
ATOM     22  C   UNL     1     100.839 105.951 133.387  0.00  0.00    +0.000 A 
ATOM     23  C   UNL     1     102.175 104.639 131.395  0.00  0.00    +0.000 A 
ATOM     24  C   UNL     1     101.621 106.671 132.510  0.00  0.00    +0.000 A 
ATOM     25  C   UNL     1     100.713 104.587 133.285  0.00  0.00    +0.000 A 
ATOM     26  C   UNL     1     101.390 103.924 132.279  0.00  0.00    +0.000 A 
ENDBRANCH  20  23
ENDBRANCH  19  20
ENDBRANCH   6  19
TORSDOF 6
