REMARK minimizedAffinity -6.56442738
REMARK minimizedRMSD -1
REMARK  Name = 04_docking/output/fentanyl.pdb
REMARK  7 active torsions:
REMARK  status: ('A' for Active; 'I' for Inactive)
REMARK    1  A    between atoms: C_2  and  C_16
REMARK    2  A    between atoms: C_2  and  C_17
REMARK    3  A    between atoms: C_5  and  N_23
REMARK    4  A    between atoms: C_9  and  C_10
REMARK    5  A    between atoms: C_10  and  C_11
REMARK    6  A    between atoms: C_12  and  N_23
REMARK    7  A    between atoms: C_16  and  N_24
REMARK                            x       y       z     vdW  Elec       q    Type
REMARK                         _______ _______ _______ _____ _____    ______ ____
ROOT
ATOM      1  C   UNL     1     104.128 104.614 125.819  0.00  0.00    +0.000 C 
ATOM      2  C   UNL     1     102.987 103.677 123.731  0.00  0.00    +0.000 C 
ATOM      3  C   UNL     1     101.706 103.571 124.578  0.00  0.00    +0.000 C 
ATOM      4  C   UNL     1     101.999 103.482 126.076  0.00  0.00    +0.000 C 
ATOM      5  C   UNL     1     103.947 104.730 124.304  0.00  0.00    +0.000 C 
ATOM      6  N   UNL     1     102.824 104.634 126.498  0.00  0.00    +0.000 N 
ATOM      7  H   UNL     1     102.325 105.481 126.225  0.00  0.00    +0.000 HD
ENDROOT
BRANCH   2   9
ATOM      8  C   UNL     1     103.625 103.329 121.327  0.00  0.00    +0.000 C 
ATOM      9  N   UNL     1     102.701 103.866 122.285  0.00  0.00    +0.000 N 
ATOM     10  O   UNL     1     104.198 102.276 121.529  0.00  0.00    +0.000 OA
BRANCH   9  11
ATOM     11  C   UNL     1     101.467 104.576 121.838  0.00  0.00    +0.000 A 
ATOM     12  C   UNL     1     101.539 105.967 121.877  0.00  0.00    +0.000 A 
ATOM     13  C   UNL     1     100.470 106.759 121.492  0.00  0.00    +0.000 A 
ATOM     14  C   UNL     1      99.207 104.775 121.012  0.00  0.00    +0.000 A 
ATOM     15  C   UNL     1      99.303 106.157 121.058  0.00  0.00    +0.000 A 
ATOM     16  C   UNL     1     100.287 103.996 121.401  0.00  0.00    +0.000 A 
ENDBRANCH   9  11
BRANCH   8  17
ATOM     17  C   UNL     1     103.970 104.014 119.991  0.00  0.00    +0.000 C 
ATOM     18  C   UNL     1     104.932 105.196 120.229  0.00  0.00    +0.000 C 
ENDBRANCH   8  17
ENDBRANCH   2   9
BRANCH   6  19
ATOM     19  C   UNL     1     102.999 104.681 127.960  0.00  0.00    +0.000 C 
BRANCH  19  20
ATOM     20  C   UNL     1     102.431 103.448 128.657  0.00  0.00    +0.000 C 
BRANCH  20  23
ATOM     21  C   UNL     1     102.233 103.340 131.169  0.00  0.00    +0.000 A 
ATOM     22  C   UNL     1     100.576 104.610 132.316  0.00  0.00    +0.000 A 
ATOM     23  C   UNL     1     101.769 103.862 129.973  0.00  0.00    +0.000 A 
ATOM     24  C   UNL     1     101.629 103.722 132.348  0.00  0.00    +0.000 A 
ATOM     25  C   UNL     1     100.110 105.131 131.134  0.00  0.00    +0.000 A 
ATOM     26  C   UNL     1     100.712 104.752 129.950  0.00  0.00    +0.000 A 
ENDBRANCH  20  23
ENDBRANCH  19  20
ENDBRANCH   6  19
TORSDOF 6
