REMARK minimizedAffinity -7.46134615
REMARK minimizedRMSD -1
REMARK  Name = 04_docking/output/fentanyl.pdb
REMARK  7 active torsions:
REMARK  status: ('A' for Active; 'I' for Inactive)
REMARK    1  A    between atoms: C_2  and  C_16
REMARK    2  A    between atoms: C_2  and  C_17
REMARK    3  A    between atoms: C_5  and  N_23
REMARK    4  A    between atoms: C_9  and  C_10
REMARK    5  A    between atoms: C_10  and  C_11
REMARK    6  A    between atoms: C_12  and  N_23
REMARK    7  A    between atoms: C_16  and  N_24
REMARK                            x       y       z     vdW  Elec       q    Type
REMARK                         _______ _______ _______ _____ _____    ______ ____
ROOT
ATOM      1  C   UNL     1     104.329 106.167 128.970  0.00  0.00    +0.000 C 
ATOM      2  C   UNL     1     105.505 105.265 126.885  0.00  0.00    +0.000 C 
ATOM      3  C   UNL     1     106.341 104.389 127.836  0.00  0.00    +0.000 C 
ATOM      4  C   UNL     1     106.416 104.965 129.251  0.00  0.00    +0.000 C 
ATOM      5  C   UNL     1     104.171 105.670 127.531  0.00  0.00    +0.000 C 
ATOM      6  N   UNL     1     105.053 105.178 129.782  0.00  0.00    +0.000 N 
ATOM      7  H   UNL     1     104.562 104.285 129.726  0.00  0.00    +0.000 HD
ENDROOT
BRANCH   2   9
ATOM      8  C   UNL     1     104.661 103.398 125.432  0.00  0.00    +0.000 C 
ATOM      9  N   UNL     1     105.347 104.655 125.540  0.00  0.00    +0.000 N 
ATOM     10  O   UNL     1     103.714 103.137 126.149  0.00  0.00    +0.000 OA
BRANCH   9  11
ATOM     11  C   UNL     1     105.867 105.345 124.324  0.00  0.00    +0.000 A 
ATOM     12  C   UNL     1     107.114 105.947 124.473  0.00  0.00    +0.000 A 
ATOM     13  C   UNL     1     107.723 106.624 123.430  0.00  0.00    +0.000 A 
ATOM     14  C   UNL     1     105.838 106.116 122.036  0.00  0.00    +0.000 A 
ATOM     15  C   UNL     1     107.079 106.706 122.209  0.00  0.00    +0.000 A 
ATOM     16  C   UNL     1     105.241 105.441 123.091  0.00  0.00    +0.000 A 
ENDBRANCH   9  11
BRANCH   8  17
ATOM     17  C   UNL     1     105.046 102.294 124.430  0.00  0.00    +0.000 C 
ATOM     18  C   UNL     1     103.910 102.080 123.409  0.00  0.00    +0.000 C 
ENDBRANCH   8  17
ENDBRANCH   2   9
BRANCH   6  19
ATOM     19  C   UNL     1     105.070 105.580 131.199  0.00  0.00    +0.000 C 
BRANCH  19  20
ATOM     20  C   UNL     1     104.579 104.473 132.127  0.00  0.00    +0.000 C 
BRANCH  20  23
ATOM     21  C   UNL     1     102.253 103.897 131.341  0.00  0.00    +0.000 A 
ATOM     22  C   UNL     1     100.339 104.706 132.507  0.00  0.00    +0.000 A 
ATOM     23  C   UNL     1     103.057 104.553 132.259  0.00  0.00    +0.000 A 
ATOM     24  C   UNL     1     100.882 103.975 131.472  0.00  0.00    +0.000 A 
ATOM     25  C   UNL     1     101.129 105.359 133.420  0.00  0.00    +0.000 A 
ATOM     26  C   UNL     1     102.503 105.283 133.293  0.00  0.00    +0.000 A 
ENDBRANCH  20  23
ENDBRANCH  19  20
ENDBRANCH   6  19
TORSDOF 6
