REMARK minimizedAffinity -6.90928411
REMARK minimizedRMSD -1
REMARK  Name = 04_docking/output/fentanyl.pdb
REMARK  7 active torsions:
REMARK  status: ('A' for Active; 'I' for Inactive)
REMARK    1  A    between atoms: C_2  and  C_16
REMARK    2  A    between atoms: C_2  and  C_17
REMARK    3  A    between atoms: C_5  and  N_23
REMARK    4  A    between atoms: C_9  and  C_10
REMARK    5  A    between atoms: C_10  and  C_11
REMARK    6  A    between atoms: C_12  and  N_23
REMARK    7  A    between atoms: C_16  and  N_24
REMARK                            x       y       z     vdW  Elec       q    Type
REMARK                         _______ _______ _______ _____ _____    ______ ____
ROOT
ATOM      1  C   UNL     1     101.791 103.497 126.447  0.00  0.00    +0.000 C 
ATOM      2  C   UNL     1     102.907 105.029 124.729  0.00  0.00    +0.000 C 
ATOM      3  C   UNL     1     103.000 106.081 125.849  0.00  0.00    +0.000 C 
ATOM      4  C   UNL     1     101.956 105.864 126.946  0.00  0.00    +0.000 C 
ATOM      5  C   UNL     1     102.806 103.610 125.307  0.00  0.00    +0.000 C 
ATOM      6  N   UNL     1     102.073 104.494 127.490  0.00  0.00    +0.000 N 
ATOM      7  H   UNL     1     103.035 104.374 127.807  0.00  0.00    +0.000 HD
ENDROOT
BRANCH   2   9
ATOM      8  C   UNL     1     103.642 105.055 122.328  0.00  0.00    +0.000 C 
ATOM      9  N   UNL     1     103.984 105.178 123.717  0.00  0.00    +0.000 N 
ATOM     10  O   UNL     1     102.579 105.468 121.905  0.00  0.00    +0.000 OA
BRANCH   9  11
ATOM     11  C   UNL     1     105.386 105.473 124.133  0.00  0.00    +0.000 A 
ATOM     12  C   UNL     1     106.084 106.337 123.292  0.00  0.00    +0.000 A 
ATOM     13  C   UNL     1     107.395 106.700 123.551  0.00  0.00    +0.000 A 
ATOM     14  C   UNL     1     107.356 105.333 125.523  0.00  0.00    +0.000 A 
ATOM     15  C   UNL     1     108.028 106.195 124.672  0.00  0.00    +0.000 A 
ATOM     16  C   UNL     1     106.043 104.978 125.249  0.00  0.00    +0.000 A 
ENDBRANCH   9  11
BRANCH   8  17
ATOM     17  C   UNL     1     104.559 104.411 121.272  0.00  0.00    +0.000 C 
ATOM     18  C   UNL     1     104.677 105.326 120.037  0.00  0.00    +0.000 C 
ENDBRANCH   8  17
ENDBRANCH   2   9
BRANCH   6  19
ATOM     19  C   UNL     1     101.198 104.287 128.657  0.00  0.00    +0.000 C 
BRANCH  19  20
ATOM     20  C   UNL     1     101.955 103.750 129.867  0.00  0.00    +0.000 C 
BRANCH  20  23
ATOM     21  C   UNL     1     101.015 103.977 132.197  0.00  0.00    +0.000 A 
ATOM     22  C   UNL     1     100.990 106.090 133.299  0.00  0.00    +0.000 A 
ATOM     23  C   UNL     1     101.607 104.585 131.102  0.00  0.00    +0.000 A 
ATOM     24  C   UNL     1     100.707 104.740 133.303  0.00  0.00    +0.000 A 
ATOM     25  C   UNL     1     101.575 106.699 132.216  0.00  0.00    +0.000 A 
ATOM     26  C   UNL     1     101.886 105.938 131.105  0.00  0.00    +0.000 A 
ENDBRANCH  20  23
ENDBRANCH  19  20
ENDBRANCH   6  19
TORSDOF 6
